<VTKFile type="UnstructuredGrid" version="1.0" byte_order="LittleEndian" header_type="UInt64">
<UnstructuredGrid>
<Piece NumberOfPoints="1352" NumberOfCells="2512">
<Points>
<DataArray NumberOfComponents="3" type="Float64">
2.0 0.0 0.0
0.0 2.0 0.0
-2.0 0.0 0.0
0.0 -2.0 0.0
1.0 0.0 0.0
0.0 1.0 0.0
-1.0 0.0 0.0
0.0 -1.0 0.0
1.99759091241 0.0981353486543 0.0
1.99036945334 0.196034280658 0.0
1.97835301993 0.29346094891 0.0
1.96157056081 0.390180644031 0.0
1.94006250639 0.485960359805 0.0
1.91388067146 0.580569354507 0.0
1.88308813037 0.673779706783 0.0
1.84775906502 0.765366864728 0.0
1.80797858625 0.855110186858 0.0
1.7638425287 0.94279347365 0.0
1.71545722 1.02820548838 0.0
1.66293922461 1.11114046604 0.0
1.60641506296 1.19139860898 0.0
1.54602090673 1.26878656832 0.0
1.48190225071 1.34311790969 0.0
1.41421356238 1.41421356237 0.0
1.3431179097 1.48190225071 0.0
1.26878656833 1.54602090672 0.0
1.19139860899 1.60641506296 0.0
1.11114046604 1.6629392246 0.0
1.02820548839 1.71545722 0.0
0.942793473654 1.7638425287 0.0
0.855110186862 1.80797858625 0.0
0.765366864732 1.84775906502 0.0
0.673779706786 1.88308813037 0.0
0.58056935451 1.91388067146 0.0
0.485960359807 1.94006250639 0.0
0.390180644033 1.96157056081 0.0
0.293460948911 1.97835301993 0.0
0.196034280659 1.99036945334 0.0
0.0981353486547 1.99759091241 0.0
-0.0981353486543 1.99759091241 0.0
-0.196034280658 1.99036945334 0.0
-0.29346094891 1.97835301993 0.0
-0.390180644031 1.96157056081 0.0
-0.485960359805 1.94006250639 0.0
-0.580569354507 1.91388067146 0.0
-0.673779706783 1.88308813037 0.0
-0.765366864728 1.84775906502 0.0
-0.855110186858 1.80797858625 0.0
-0.94279347365 1.7638425287 0.0
-1.02820548838 1.71545722 0.0
-1.11114046604 1.66293922461 0.0
-1.19139860898 1.60641506296 0.0
-1.26878656832 1.54602090673 0.0
-1.34311790969 1.48190225071 0.0
-1.41421356237 1.41421356238 0.0
-1.48190225071 1.3431179097 0.0
-1.54602090672 1.26878656833 0.0
-1.60641506296 1.19139860899 0.0
-1.6629392246 1.11114046604 0.0
-1.71545722 1.02820548839 0.0
-1.7638425287 0.942793473654 0.0
-1.80797858625 0.855110186862 0.0
-1.84775906502 0.765366864732 0.0
-1.88308813037 0.673779706786 0.0
-1.91388067146 0.58056935451 0.0
-1.94006250639 0.485960359807 0.0
-1.96157056081 0.390180644033 0.0
-1.97835301993 0.293460948911 0.0
-1.99036945334 0.196034280659 0.0
-1.99759091241 0.0981353486547 0.0
-1.99759091241 -0.0981353486543 0.0
-1.99036945334 -0.196034280658 0.0
-1.97835301993 -0.29346094891 0.0
-1.96157056081 -0.390180644031 0.0
-1.94006250639 -0.485960359805 0.0
-1.91388067146 -0.580569354507 0.0
-1.88308813037 -0.673779706783 0.0
-1.84775906502 -0.765366864728 0.0
-1.80797858625 -0.855110186858 0.0
-1.7638425287 -0.94279347365 0.0
-1.71545722 -1.02820548838 0.0
-1.66293922461 -1.11114046604 0.0
-1.60641506296 -1.19139860898 0.0
-1.54602090673 -1.26878656832 0.0
-1.48190225071 -1.34311790969 0.0
-1.41421356238 -1.41421356237 0.0
-1.3431179097 -1.48190225071 0.0
-1.26878656833 -1.54602090672 0.0
-1.19139860899 -1.60641506296 0.0
-1.11114046604 -1.6629392246 0.0
-1.02820548839 -1.71545722 0.0
-0.942793473654 -1.7638425287 0.0
-0.855110186862 -1.80797858625 0.0
-0.765366864732 -1.84775906502 0.0
-0.673779706786 -1.88308813037 0.0
-0.58056935451 -1.91388067146 0.0
-0.485960359807 -1.94006250639 0.0
-0.390180644033 -1.96157056081 0.0
-0.293460948911 -1.97835301993 0.0
-0.196034280659 -1.99036945334 0.0
-0.0981353486547 -1.99759091241 0.0
0.0981353486543 -1.99759091241 0.0
0.196034280658 -1.99036945334 0.0
0.29346094891 -1.97835301993 0.0
0.390180644031 -1.96157056081 0.0
0.485960359805 -1.94006250639 0.0
0.580569354507 -1.91388067146 0.0
0.673779706783 -1.88308813037 0.0
0.765366864728 -1.84775906502 0.0
0.855110186858 -1.80797858625 0.0
0.94279347365 -1.7638425287 0.0
1.02820548838 -1.71545722 0.0
1.11114046604 -1.66293922461 0.0
1.19139860898 -1.60641506296 0.0
1.26878656832 -1.54602090673 0.0
1.34311790969 -1.48190225071 0.0
1.41421356237 -1.41421356238 0.0
1.48190225071 -1.3431179097 0.0
1.54602090672 -1.26878656833 0.0
1.60641506296 -1.19139860899 0.0
1.6629392246 -1.11114046604 0.0
1.71545722 -1.02820548839 0.0
1.7638425287 -0.942793473654 0.0
1.80797858625 -0.855110186862 0.0
1.84775906502 -0.765366864732 0.0
1.88308813037 -0.673779706786 0.0
1.91388067146 -0.58056935451 0.0
1.94006250639 -0.485960359807 0.0
1.96157056081 -0.390180644033 0.0
1.97835301993 -0.293460948911 0.0
1.99036945334 -0.196034280659 0.0
1.99759091241 -0.0981353486547 0.0
0.995184726672 0.0980171403292 0.0
0.980785280403 0.195090322016 0.0
0.956940335732 0.290284677254 0.0
0.923879532512 0.382683432364 0.0
0.881921264349 0.471396736825 0.0
0.831469612303 0.555570233018 0.0
0.773010453364 0.634393284162 0.0
0.707106781188 0.707106781185 0.0
0.634393284165 0.773010453362 0.0
0.555570233021 0.831469612302 0.0
0.471396736827 0.881921264348 0.0
0.382683432366 0.923879532511 0.0
0.290284677255 0.956940335732 0.0
0.195090322016 0.980785280403 0.0
0.0980171403296 0.995184726672 0.0
-0.0980171403292 0.995184726672 0.0
-0.195090322016 0.980785280403 0.0
-0.290284677254 0.956940335732 0.0
-0.382683432364 0.923879532512 0.0
-0.471396736825 0.881921264349 0.0
-0.555570233018 0.831469612303 0.0
-0.634393284162 0.773010453364 0.0
-0.707106781185 0.707106781188 0.0
-0.773010453362 0.634393284165 0.0
-0.831469612302 0.555570233021 0.0
-0.881921264348 0.471396736827 0.0
-0.923879532511 0.382683432366 0.0
-0.956940335732 0.290284677255 0.0
-0.980785280403 0.195090322016 0.0
-0.995184726672 0.0980171403296 0.0
-0.995184726672 -0.0980171403292 0.0
-0.980785280403 -0.195090322016 0.0
-0.956940335732 -0.290284677254 0.0
-0.923879532512 -0.382683432364 0.0
-0.881921264349 -0.471396736825 0.0
-0.831469612303 -0.555570233018 0.0
-0.773010453364 -0.634393284162 0.0
-0.707106781188 -0.707106781185 0.0
-0.634393284165 -0.773010453362 0.0
-0.555570233021 -0.831469612302 0.0
-0.471396736827 -0.881921264348 0.0
-0.382683432366 -0.923879532511 0.0
-0.290284677255 -0.956940335732 0.0
-0.195090322016 -0.980785280403 0.0
-0.0980171403296 -0.995184726672 0.0
0.0980171403292 -0.995184726672 0.0
0.195090322016 -0.980785280403 0.0
0.290284677254 -0.956940335732 0.0
0.382683432364 -0.923879532512 0.0
0.471396736825 -0.881921264349 0.0
0.555570233018 -0.831469612303 0.0
0.634393284162 -0.773010453364 0.0
0.707106781185 -0.707106781188 0.0
0.773010453362 -0.634393284165 0.0
0.831469612302 -0.555570233021 0.0
0.881921264348 -0.471396736827 0.0
0.923879532511 -0.382683432366 0.0
0.956940335732 -0.290284677255 0.0
0.980785280403 -0.195090322016 0.0
0.995184726672 -0.0980171403296 0.0
-1.48869122094 -0.0736359866957 0.0
0.0736359866957 -1.48869122094 0.0
1.48869122094 0.0736359866957 0.0
-0.0736359866957 1.48869122094 0.0
-1.34719207712 -0.637728247123 0.0
0.637728247123 -1.34719207712 0.0
1.34719207712 0.637728247123 0.0
-0.637728247123 1.34719207712 0.0
1.00059515189 1.10473216295 0.0
-1.00059515189 -1.10473216295 0.0
1.10473216295 -1.00059515189 0.0
-1.10473216295 1.00059515189 0.0
-1.40321327813 0.502609496433 0.0
-0.502609496433 -1.40321327813 0.0
1.40321327813 -0.502609496433 0.0
0.502609496433 1.40321327813 0.0
-1.60468540067 -0.421677295263 0.0
0.421677295263 -1.60468540067 0.0
1.60468540067 0.421677295263 0.0
-0.421677295263 1.60468540067 0.0
0.243532793692 1.6496318229 0.0
1.6496318229 -0.243532793692 0.0
-1.6496318229 0.243532793692 0.0
-0.243532793692 -1.6496318229 0.0
-1.00366553941 1.3211670831 0.0
1.3211670831 1.00366553941 0.0
-1.3211670831 -1.00366553941 0.0
1.00366553941 -1.3211670831 0.0
-0.833787321191 -1.41278341949 0.0
1.41278341949 -0.833787321191 0.0
0.833787321191 1.41278341949 0.0
-1.41278341949 0.833787321191 0.0
-0.321294632762 1.28268007451 0.0
1.28268007451 0.321294632762 0.0
-1.28268007451 -0.321294632762 0.0
0.321294632762 -1.28268007451 0.0
-1.06208773474 -0.787697948655 0.0
0.787697948655 -1.06208773474 0.0
1.06208773474 0.787697948655 0.0
-0.787697948655 1.06208773474 0.0
0.194022878426 1.30799600047 0.0
1.30799600047 -0.194022878426 0.0
-1.30799600047 0.194022878426 0.0
-0.194022878426 -1.30799600047 0.0
-0.679802165198 -1.13418139237 0.0
1.13418139237 -0.679802165198 0.0
0.679802165198 1.13418139237 0.0
-1.13418139237 0.679802165198 0.0
1.74213026653 -0.00427948323987 0.0
0.00427948323987 1.74213026653 0.0
-1.74213026653 0.00427948323987 0.0
-0.00427948323987 -1.74213026653 0.0
-1.61115618355 -0.662730663046 0.0
0.662730663046 -1.61115618355 0.0
1.61115618355 0.662730663046 0.0
-0.662730663046 1.61115618355 0.0
1.23489817679 1.22884607355 0.0
-1.22884607355 1.23489817679 0.0
-1.23489817679 -1.22884607355 0.0
1.22884607355 -1.23489817679 0.0
0.501919785785 1.66835587203 0.0
1.66835587203 -0.501919785785 0.0
-1.66835587203 0.501919785785 0.0
-0.501919785785 -1.66835587203 0.0
1.22459127557 0.0601603116234 0.0
-0.0601603116234 1.22459127557 0.0
-1.22459127557 -0.0601603116234 0.0
0.0601603116234 -1.22459127557 0.0
-1.10106638198 -0.523353769816 0.0
0.523353769816 -1.10106638198 0.0
1.10106638198 0.523353769816 0.0
-0.523353769816 1.10106638198 0.0
-0.816973877276 -0.904875698514 0.0
0.904875698514 -0.816973877276 0.0
0.816973877276 0.904875698514 0.0
-0.904875698514 0.816973877276 0.0
0.408364893934 1.1413034214 0.0
-1.1413034214 0.408364893934 0.0
-0.408364893934 -1.1413034214 0.0
1.1413034214 -0.408364893934 0.0
0.234524155916 -1.75782035298 0.0
-1.75782035298 -0.234524155916 0.0
-0.234524155916 1.75782035298 0.0
1.75782035298 0.234524155916 0.0
-1.53426573699 -0.889360793689 0.0
0.889360793689 -1.53426573699 0.0
1.53426573699 0.889360793689 0.0
-0.889360793689 1.53426573699 0.0
1.59674525309 -0.731497308528 0.0
0.731497308528 1.59674525309 0.0
-0.731497308528 -1.59674525309 0.0
-1.59674525309 0.731497308528 0.0
-1.08237451067 -1.40090395297 0.0
1.40090395297 -1.08237451067 0.0
-1.40090395297 1.08237451067 0.0
1.08237451067 1.40090395297 0.0
-1.4728944804 -0.271223321231 0.0
0.271223321231 -1.4728944804 0.0
-0.271223321231 1.4728944804 0.0
1.4728944804 0.271223321231 0.0
-1.42675612741 -0.453286348038 0.0
[...]
<PointData Scalars="solution">
<DataArray type="Float64" Name="Real part" format="ascii">
0.652283625823
15.78395408
-1.12917177515
15.8032964728
0.0
0.0
0.0
0.0
0.794451098068
1.21672720935
1.92009525095
2.82163765138
3.7333481389
4.26220096349
3.82052513026
1.89149705657
-1.45506016059
-5.04200899029
-6.4384097512
-3.28709896262
4.37803592432
12.3610419179
14.1956964811
7.14728079943
-3.17881219819
-7.19806778691
-2.38420383091
2.86890794731
1.12401013662
-2.88216823242
-1.09432490342
2.7834255454
0.713659658662
-2.5033440797
1.190352281
3.98432084071
-2.45714285702
-5.23143833809
6.57234773103
6.64529755574
-5.07836713705
-2.21157552915
4.34435434213
1.68155140123
-1.8600021596
1.49752886881
3.71020399824
-0.0479111053153
-1.74586917827
2.30545748555
4.0332111703
-1.28764410607
-6.21649756914
-2.38849990298
7.71720613343
14.4967025992
12.3821336474
4.1108843951
-3.84754820906
-7.2787732736
-6.10088692025
-2.73094185386
0.446275091069
2.24764064152
2.60267497877
2.01329539437
1.06188758934
0.126131665715
-0.571846869892
-0.992345592072
-0.989675430061
-0.563400764044
0.138976676933
1.07734028564
2.03375520028
2.61132646179
2.26535009367
0.477345638363
-2.71099587264
-6.08288659667
-7.25816212408
-3.83012721579
4.12865288641
12.3955807523
14.5064911655
7.72264512587
-2.38449191453
-6.22129203135
-1.29075207077
4.02732918921
2.29999744803
-1.76007997917
-0.0613893562002
3.70781474585
1.49127618558
-1.86989535604
1.67853988666
4.352819163
-2.19902043546
-5.07078846814
6.66570430846
6.60145563194
-5.2095085645
-2.42326006436
4.0196695938
1.21840497992
-2.46794240338
0.747605497957
2.81736525385
-1.06141679728
-2.84993161048
1.15498190382
2.89679700245
-2.35603030797
-7.16740038277
-3.16327936719
7.17180643785
14.2045075666
12.3821551861
4.38622221192
-3.2815644233
-6.43610061164
-5.03859492094
-1.45447637259
1.8941117812
3.81591295658
4.25405585681
3.7350529776
2.81900540817
1.91958776621
1.21837059724
0.792369738307
0.0
0.0
0.0
1.33226762955e-15
-1.11022302463e-15
0.0
0.0
4.4408920985e-16
-6.66133814775e-16
0.0
0.0
8.881784197e-16
0.0
0.0
0.0
0.0
0.0
0.0
-4.4408920985e-16
2.88657986403e-15
0.0
0.0
0.0
-2.22044604925e-15
0.0
0.0
8.881784197e-16
0.0
0.0
0.0
0.0
0.0
0.0
-8.881784197e-16
3.99680288865e-15
0.0
0.0
-4.4408920985e-16
1.55431223448e-15
0.0
0.0
-4.4408920985e-16
0.0
0.0
0.0
0.0
0.0
0.0
-8.881784197e-16
3.5527136788e-15
0.0
0.0
-4.4408920985e-16
-4.88498130835e-15
0.0
0.0
-2.22044604925e-15
0.0
0.0
0.0
16.4179913086
9.82720903966
12.024838996
9.37648870394
-1.84735093865
1.25027641005
-3.31022993425
-1.46983402378
1.1579872243
-0.846082454499
4.02481123017
2.7314723925
6.80313217953
-0.351071778821
4.31714048414
2.18495758343
5.04568032621
5.66338940143
3.02649012692
4.09893019351
-4.59308862071
-3.7935184525
-1.25856426362
-5.58026004045
-0.178160449289
-4.96092636459
-5.62163360486
1.51169286136
0.133677552941
6.74643497795
2.19509366222
6.87124094342
-1.40972542654
-8.18563445846
-4.78414392523
0.45539437097
2.7209989329
3.90407849401
3.04628952548
1.61756390261
-5.77311081844
-7.73880095919
-3.71769687758
-7.01048450453
0.289760457221
2.0863721557
2.8867409552
2.74214615776
-8.02137641633
16.1640868788
-6.21723833742
16.1562117461
3.30568083903
1.9000629679
2.87512746852
0.617663383397
-4.92367318299
-5.37968017438
-5.81552224866
-4.48625612683
1.74406865435
-5.04484845584
-4.11749762866
0.564599862385
-6.11969179682
8.40786579672
-2.58127792298
8.72855039373
4.82450021779
0.0853053654044
3.50127888933
-1.92318970951
0.345730357786
-2.60042471257
1.79082413191
-3.43755439216
4.9972737242
3.93110297226
3.18109748127
1.86990417552
-4.95834568394
-5.80565868299
-5.52975551405
-6.98238069508
12.8746749069
-0.983462502662
13.171115477
-1.94135708943
5.2523319827
4.48309799842
3.30171001659
5.39062827223
3.48299969269
5.49196431419
4.89383776005
4.35457672123
15.4882175836
-3.36398541425
-4.93795742688
11.7001317117
10.3508117344
4.77761855532
2.445384021
7.5594275684
-6.81227240624
0.726413203204
-6.73186995439
3.33132633668
16.4315780238
12.1569851713
2.52664591593
1.74440111929
2.1502200414
-2.5824395645
1.10267065159
-0.440259433422
-1.66962302053
14.8377058311
11.2189561928
0.127113812794
1.36152040867
-5.66260471566
-1.21631588898
-5.50238229341
-3.86076683691
3.72225975987
0.957721483493
-4.95841948082
-6.93310650368
-6.87499662084
0.0142392424135
-0.61618998496
-4.25846072163
-1.69308509235
-1.25844139569
-4.54711257371
6.8092893538
1.17313941652
6.30233241917
1.60448731064
-3.303722778
2.94652205186
2.47609452947
-3.53968935659
4.80783432876
-1.86324198489
-1.46084675365
4.30889080651
-0.0205860403622
-7.69124036017
2.64423987663
-6.75027499825
-1.59899346377
4.20731435501
1.3449204322
3.75017998712
-0.203757737772
-0.0659309540801
-0.492771598268
-1.73644983274
0.334710565536
-1.99194787786
1.96825032498
-1.94394387441
3.4058675313
2.21259971679
5.3112626508
3.64588272942
-2.53105330336
2.32147449709
-3.10696026394
3.57214712033
3.94717770414
-6.45870462723
1.53353882967
-5.33965405714
-2.18571758976
2.72767472267
-0.481842791858
3.69281590144
-2.68918268893
4.37086009056
-2.69258559281
4.80469848676
14.2919417322
13.7727120537
3.13329008825
2.90368792098
7.29272781351
-4.87004621891
4.04367830782
-5.86792829967
3.80064209818
1.74741662859
4.10945248935
3.98742729719
-7.37167179492
0.839786032918
-1.11730416053
-6.64441389135
13.5651092536
2.24456994532
-0.0352710636797
12.4174502053
-5.59578104172
-4.66919713137
-0.440194356083
-4.47505989472
-5.27120030471
3.49319216337
1.01569617671
-7.77567122469
0.991477457386
11.7904311591
-3.52524732442
12.0957176896
0.201684956267
-0.151061517823
2.87864998411
-0.946089876132
-1.45893158319
-1.79568841687
-3.59099907579
-0.118279189026
-7.43563463091
2.8127143621
-4.02984547515
0.744463953557
2.1958303249
2.9669852769
-0.170748304542
3.45768755321
-0.440606874575
-4.06204919826
-3.138795596
-5.87670256323
0.565585704857
6.30885350607
6.15325569068
0.782805061476
-3.93585026822
2.46335489256
-4.43479920527
2.78290263588
-5.22397119672
2.08943071156
1.70318835426
-4.97444006122
-6.82881906433
-7.19806215273
-0.579289482754
-0.190710116526
12.9983283311
12.4602336344
2.20745704522
2.03550878145
-2.55565841679
13.3392436487
14.9415777723
-0.340602280277
14.9360834661
6.8257359691
15.0788517213
3.2131606314
2.69718913848
2.08639655393
0.698388211351
4.24074348788
13.8646185271
3.47778974196
11.440796376
5.39784358207
2.32932926779
13.83244593
2.21582186344
13.8057161195
-6.40157344546
1.47181625665
-6.98047962919
1.67002468958
-1.09754886675
-6.62974897206
-1.31326672096
-6.5000331593
-2.8896599096
0.932242605505
1.19675711369
-2.44565766256
2.63320048263
-4.93689684339
-7.37679284153
2.15331606416
3.16712987232
-0.927850827713
4.47268605328
0.639604976643
-6.51192383407
3.14419419116
-7.40331988164
4.47747965039
-3.41556171601
4.73316606203
3.4651185952
-1.54361065826
4.22492084691
7.21571730906
1.94333448619
7.0131018134
2.37572497604
1.60351275064
0.389633431267
1.53316721983
2.3519289869
-0.183327315769
3.2124175564
-0.688387379341
2.82143709192
3.56581140814
3.91962247806
4.84005551933
-8.06288968763
6.21545856903
-5.74578366945
6.58795218817
13.3917025656
4.89044796203
3.27915744652
13.0258899661
4.86449202145
-0.613501894689
5.83740291254
-2.18018776433
2.23144616353
-6.4353555956
-7.34143881061
3.48895589318
0.404025209559
-4.60404157802
-5.25972760118
0.456828585585
-1.30827666288
11.4891862605
11.0391517656
-0.150965387132
-3.51277041056
-3.36657838411
-4.34118089882
-5.71393081177
10.2748657047
-0.460173510129
10.4271894602
-2.1106992642
14.0425165727
4.94134783567
3.16179478615
14.4221929089
2.48028865268
-5.52486837117
2.1225569108
-5.34348814336
-1.52777229253
-2.12536459467
-2.20391294228
-2.20930475801
0.123199996331
14.2528323348
0.0184765360198
13.8722654468
4.17215611834
9.68218140231
-0.384634269505
9.24550846058
4.06093149773
-4.88568393242
1.52510934935
-7.56806496661
-1.62578901932
-3.61126042973
1.7070317882
0.47684070685
-5.22485339103
-0.449122930583
-6.87343331714
-3.18080907039
-3.15591855468
1.74301136832
2.1517962309
-3.32538273179
-5.61509037115
5.93638828404
-6.97430267526
10.1669360385
5.76551662539
3.16388437798
2.220374799
1.11469713056
2.33238162896
-5.62306981583
5.14929057922
-5.05098060409
1.24743405463
-1.56110029429
0.790413829627
0.930916171999
-0.740487416807
-5.57923628219
-2.94825524801
-5.30687193127
3.12170377188
12.7983611683
15.8747797966
5.05148853477
-3.3208755589
-5.61038948934
-6.17026912755
-1.02888376834
-6.48123039389
15.2350586166
-5.22274942239
11.4994850816
4.44283601445
-5.0311657102
1.85068558722
-5.39605220892
-4.33269834869
5.31122164558
-3.57222594703
3.83050004328
-0.0510102467282
-2.86077297795
-2.94471432869
0.893513645057
5.19787407293
-4.52442308637
3.46557681742
-4.02249521177
-2.88658334765
-2.20703690676
-1.81218940522
-1.88761201063
11.6772952492
3.78211015397
1.47520545008
10.7078935017
9.23644473929
6.35760871035
2.80839853339
8.81287383792
4.36829602339
-2.54765933802
2.61047394526
-1.38826496178
15.152162031
-1.97809433589
0.202959693732
13.316648706
1.31986851168
0.571129369311
-0.183283185417
1.41012914674
14.6692703125
1.16266441244
14.2974021396
0.908088602706
-3.812280732
-5.60184102083
-6.6101673052
-4.39194339917
4.29718220608
-7.6063724464
-6.64620988731
5.27418295639
2.52636686976
7.36512028628
6.80319838077
3.49650062272
-6.29720048329
3.52468557069
3.54481943552
-7.06119061043
13.7606344099
-3.12871627186
-4.18575332216
9.45141148648
14.25332928
10.2158659285
14.0707836293
14.7765732033
-2.01431878743
-0.1426179098
0.620918437993
-2.41006101171
-7.45552257339
1.79972463134
-6.62133855589
4.57851282813
3.32740898743
7.11133942166
5.58682711511
3.87647409174
-3.40755562035
2.01489932378
-1.01703997327
1.28504452827
-0.198554165581
3.35852184322
1.78592042175
1.5902715309
-2.78971627186
-3.07578006134
-4.70690940676
-0.30673878502
-2.35491091947
4.7009956593
2.69994704397
-5.08543993339
-1.87026738831
1.98828573686
0.13437764006
-1.10358439986
-7.51066944283
-4.80750757613
-4.0780550909
-6.33701674057
-3.30345839843
2.14427442026
-0.873648945378
3.33689792788
12.6873026961
0.886954443972
14.8471476212
2.93713140819
-3.89220344873
-4.91782730658
3.11465102074
1.28008877344
11.4562953686
8.55411824691
2.40979940563
0.821045808128
1.88200656806
1.9252133537
3.50603532448
2.8541961319
-3.08171280274
-1.43249057712
-2.27131102855
-1.43379083155
10.1599097511
9.98511852701
-6.22680404157
-6.06657561111
2.43030508871
7.30852246503
3.07239688191
3.78825955632
4.4699715613
4.4193040534
2.16545797934
1.36388304015
-3.78612568254
-7.54619488555
-3.88821212465
-2.91606850889
-2.57167464075
4.19856229353
-0.335681995261
3.40359087229
-4.25265930362
11.714719573
-8.12291439189
11.9048513996
2.1081405076
-0.752552064814
4.05291991306
-1.15195603534
3.30920630094
1.12846898771
2.50800958018
1.20953755407
2.9365028878
2.09106577049
2.32097163643
1.68912325766
2.96877044227
3.60501354877
-0.741162166231
-0.605706400277
-1.99944079988
7.37134241193
10.3859178952
-0.564907847618
-3.97350002003
-0.0766555766156
-2.2699482623
-3.80888257361
6.22078506829
5.12667470315
5.45801112534
2.69599369965
3.16995598356
7.13125612952
4.77292409453
7.02025813285
4.9315415567
-2.64288831827
3.42681909665
-3.02419651601
-1.70136167518
-1.56744774296
-2.46358662573
-2.02206409967
0.332042086125
-2.10500571286
1.123989202
-2.21708913376
0.469813295053
-2.05962277361
-3.53844114993
-2.32289764705
-1.11609109088
-1.32464467682
4.04996314705
2.22674908058
-1.5063940312
-6.4613841578
-4.78918022151
-5.48209475977
-0.022795011196
3.08813180707
-2.09706634682
2.50930835645
-4.58815078792
2.2921089955
-4.45131478685
2.28413327422
-5.86736322027
3.64075182127
-6.76119897177
3.40923925705
3.54546327397
14.4157621684
14.4530027657
2.83889053839
-1.76349764058
-1.52743525313
-1.85345216519
-0.594962243219
-5.46241067414
8.50533026637
8.29913031303
-4.27000177107
-5.2301401822
-0.823119607045
-5.52982879608
-1.78407888016
-2.55235085553
-4.85613259369
-5.51594338106
-1.82942532062
-1.68160400222
-0.356649109578
14.394302086
14.2062282476
5.01314600856
4.18214799088
-7.64036824366
-6.97371569361
2.03821465182
2.79437895044
2.90778565959
3.5856893461
1.21759705429
2.19383175147
0.811826129427
2.75185533372
1.62206668807
0.428180189889
2.4825620836
1.07622940909
-2.85659720203
3.27337217256
4.42505259975
-2.19951854053
0.609394223507
-1.7302369914
-1.19068920699
-1.02452730541
6.14194963166
2.81306474533
1.91896644209
5.94744754566
-2.09432334014
-4.95183693711
-5.74764162716
-2.46454690308
-2.80614023007
0.943022090645
0.0806543473955
1.57711902495
2.19500831318
2.2417377002
4.79917856711
2.34669327866
-1.73418086342
-3.4834502378
1.01484035596
-2.30531983607
-5.51754122939
-4.04090983905
-1.66832944712
-5.72481905051
-6.18587721125
-1.00402375592
-4.5759720409
-4.8910668051
-4.51213532492
5.32001960217
-7.58036692878
3.08415164801
2.06237604539
4.87911703621
1.92271333298
2.3081696772
2.02456305641
-0.0427872683064
2.86899318236
-2.19663574214
-1.55391129643
14.1273354387
13.6937879624
-0.599232264508
1.57554856866
-6.65937234135
-7.73940280035
0.796731242177
-0.845308734716
1.94119577401
1.33893172995
3.60765769761
1.43555390672
-0.589908911069
-3.38321540811
-0.296926228556
2.13338477525
0.204010220159
2.2510764733
4.18620958612
-1.92956059831
-2.26507987496
-3.40395774665
-0.546935380809
2.66683835089
0.768264196028
3.57075700611
0.724347727549
-7.5017904837
-0.993570745449
-6.61155986379
-0.554428176462
-6.27274173388
12.970227328
12.8514974337
-6.64579999936
-0.829712601389
-0.701382354762
1.97694857473
-0.137770640755
11.0922370025
-1.55523324458
1.37478039514
11.1459391884
2.49754124805
-1.49900779436
-3.15028987358
1.76225844784
2.4409440758
-3.07954286325
3.81480961812
-3.44975022397
10.6649802185
3.29759593936
10.1885669165
3.73256375567
-6.52692794801
-6.39517923821
-6.99212286431
-5.92529663406
-5.16588519415
3.80137945082
-4.91986522463
3.1914379325
-1.66207891877
15.6194057818
15.6766366004
-1.02064817692
-1.49226861476
-7.13349341492
-0.858563646137
-7.11533655892
-1.29226372382
13.7768657307
13.3238150965
-1.97652861954
15.4408563067
-0.982243044579
11.463017929
-1.85035201978
-1.53903710834
5.04002596684
-2.34994516827
2.44059809315
-2.21497303792
-1.32303926705
-2.22351344416
-0.0523800702731
-2.7881172894
-0.230429527761
8.48113033832
6.68379778405
4.3848227657
2.99011237436
2.07075694489
2.90361386427
2.74816684988
-8.57489779786
-4.58193510425
2.04618923149
-4.43024034625
-6.27236289186
-8.00871222756
-7.64192264196
3.28585612505
3.54446512559
3.67477234181
1.35319364047
3.94677102156
7.94247937714
7.46798693961
3.40562498556
3.46965016451
4.59068219308
2.44123782097
4.55522259153
-6.6686673557
15.2845317443
15.1724751247
-3.9443508495
13.1225509209
2.37969316337
12.3033379399
0.574477028299
-3.52434773555
1.07028592474
-0.201143815701
-2.38572463294
4.77308704746
1.43229433986
6.27314690558
-0.227235898717
-0.305680452257
-5.95996220284
-0.67685729356
-4.7797259673
1.54110499754
7.70383318955
7.51664107267
2.47451647087
1.11738321514
-0.467837488264
-1.08908105752
1.85537830509
-3.07998860546
2.04199631735
1.10411969342
-2.98249508721
1.72525120637
-2.8036963236
1.43771358827
-1.75254030954
-7.16853540996
-4.73480421091
-4.02745032542
-4.86707361566
1.12623567902
13.9284618142
14.0146477018
2.78198273452
2.51825073917
11.1656032337
0.829957756148
10.4680729172
4.58674420143
-8.18030413842
5.17535653528
-4.01273047212
-3.77246747655
-8.03162340786
12.6317034966
12.4700294605
-0.484497919847
0.373416458238
-2.05664108952
-2.29439236937
-3.17960824076
1.03639909169
-0.653594323773
-0.249218331606
-1.23617084055
0.498184583383
-1.44722431024
-0.36327052371
-3.41536667772
-2.07719550866
-1.79898045654
-3.35780577069
-3.99801991167
-6.7773257576
3.09248201083
5.28756251236
-4.89441667223
3.14006789339
-2.6309632653
0.732080003937
9.87412297621
-1.49934544597
9.35186851899
-1.18709778234
-1.78588564881
-2.39628242018
-1.58956080087
-2.00225834216
15.3857250528
15.3899346732
11.3476962236
15.5624365994
-2.8090728674
5.61310429777
7.42423463953
-0.265330513235
2.78131172047
4.35871365165
2.70547460919
4.37455936026
14.0947851377
5.13779137334
2.89100291263
11.3424259082
2.7440547936
-5.60505673923
-5.59435494678
3.68577398545
14.3437622549
3.73863216027
4.07113634951
13.8247771502
2.39065116388
3.66154698602
2.40872246581
2.67954983151
-5.6560658091
-1.05242083913
-3.37368309853
-5.09386849717
-3.60474455887
-7.96415279347
-6.38634224039
-4.11315800255
-4.68602852132
2.24068503522
-5.60632671362
1.08690550456
3.41509362174
-0.817445878657
-1.49790653332
4.44040070498
1.06964395972
1.9392606794
-8.0103526553
-6.71643174389
4.75169543468
3.39368923262
4.85361
4.52447422909
-7.0835758071
11.4459049905
-5.56150034432
11.6397659691
-1.94712375233
-6.98554351047
-2.78460560338
-6.24953527244
-4.91084029378
-0.985499995184
-2.0412864832
-4.45756953803
-6.50113774697
15.5941254708
-5.27630646189
11.8360361982
-5.01590591436
4.60150794954
2.05549760487
-5.38726411322
1.82410145007
4.30386203239
2.9324928216
-0.799029946389
13.0633731722
-6.15270059622
13.2799414991
-3.37010352964
9.2042271288
10.3805871185
-0.483248695445
-2.25197062891
1.93441114218
5.3374770971
3.79453855314
3.79835903175
1.32928505327
-3.82517352286
-4.93335622388
2.64179828396
3.52434250262
5.07397254766
1.97821245328
3.74513588561
5.36863067361
-0.17899577238
3.40641290527
1.11196314027
3.89295962089
2.53819236205
5.33790226548
4.07831393068
0.121446312562
0.428313467387
-0.476138069973
1.05834330304
9.54544627847
11.7301140394
0.819554648934
-1.58993062313
12.7662207807
5.23025031708
15.8290510997
3.25785359883
3.3187709482
1.47082054262
1.9553601333
3.29934859325
3.15617087662
13.4787897175
2.06369036799
13.4993062346
-1.29159692597
2.7099100637
-2.40261567566
2.32942375541
6.20849355725
-3.01998952103
6.3624496869
-3.33282317671
1.92303475414
-0.3275195624
3.10407183578
-0.115660148879
11.1520961103
14.9339963208
11.5289938818
10.8161620928
3.51778725767
3.56443526472
3.02002690013
2.91917861984
-4.44489379768
-2.53467251353
3.39592985212
2.21050341219
4.84300981406
-2.23991713736
4.43030798817
-0.702465542017
-5.65081121172
2.71003030745
-6.41571266463
4.17667566177
-6.39112419581
-1.54817974121
-7.36356577144
-0.952428461967
4.15165779741
-1.11693669352
-2.8970748848
4.41692537479
8.71985380206
-5.74438546104
-7.14925503117
4.59233565855
-0.694475377143
4.48412266575
-3.49011135504
2.03150116357
2.41274524569
-4.47792186991
-4.05119758931
5.13292186475
-3.41679575855
3.7917839621
2.62031239972
-1.34583759946
6.9174170821
10.7702905137
6.24877643946
6.3011355085
-0.997859469398
5.17003399218
1.49777124317
0.954629081578
1.86698871443
0.634401604589
-0.695878656486
0.934996778405
-6.19443283303
0.845253950113
-1.97961252733
-7.63717316557
-4.42709713254
3.97912218284
3.53254403302
-4.83701226624
-5.89780787281
-6.86354695278
1.97251113891
2.37660136763
3.6388625117
12.4904066206
11.982320496
4.03970198561
2.97478772256
-5.72349839594
3.56000542728
-5.84910634212
2.60836760835
4.48317165132
3.60451557267
4.57088985558
1.16506203426
-0.370718762833
1.67343475237
-0.725221864943
1.89900235617
0.837875682539
1.53827564227
1.04569156683
1.76754122047
0.946762130212
2.23901822698
1.49781022726
</DataArray>
<DataArray type="Float64" Name="Imag part" format="ascii">
-1.88734276124
-0.63668352103
3.01438785295
-0.632306964137
0.0
0.0
0.0
0.0
-1.9119163959
-1.95459812861
-1.90109853471
-1.58142234038
-0.751950661572
0.702619975452
2.59469825942
4.26136333573
4.46291208132
1.94936545212
-3.42675944066
-9.44747740312
-11.8544975011
-7.26570611392
2.70899451118
10.6691393996
9.56962245931
1.15936164731
-4.71971526605
-2.3369293164
1.94156364562
0.135909007974
-3.93307966052
-2.21231306623
1.26892053653
-1.56824502615
-4.71410639841
-0.0658217776363
2.19204429389
-7.12272287834
-12.5022264209
11.2133893268
5.78678281391
-3.59296236452
-1.38698920109
3.19982048605
0.0225767157816
-2.82691329829
0.680130228665
2.48779158474
-1.44776402317
-3.11057015518