<VTKFile type="UnstructuredGrid" version="1.0" byte_order="LittleEndian" header_type="UInt64">
<UnstructuredGrid>
<Piece NumberOfPoints="1352" NumberOfCells="2512">
<Points>
<DataArray NumberOfComponents="3" type="Float64">
2.0 0.0 0.0
0.0 2.0 0.0
-2.0 0.0 0.0
0.0 -2.0 0.0
1.0 0.0 0.0
0.0 1.0 0.0
-1.0 0.0 0.0
0.0 -1.0 0.0
1.99759091241 0.0981353486543 0.0
1.99036945334 0.196034280658 0.0
1.97835301993 0.29346094891 0.0
1.96157056081 0.390180644031 0.0
1.94006250639 0.485960359805 0.0
1.91388067146 0.580569354507 0.0
1.88308813037 0.673779706783 0.0
1.84775906502 0.765366864728 0.0
1.80797858625 0.855110186858 0.0
1.7638425287 0.94279347365 0.0
1.71545722 1.02820548838 0.0
1.66293922461 1.11114046604 0.0
1.60641506296 1.19139860898 0.0
1.54602090673 1.26878656832 0.0
1.48190225071 1.34311790969 0.0
1.41421356238 1.41421356237 0.0
1.3431179097 1.48190225071 0.0
1.26878656833 1.54602090672 0.0
1.19139860899 1.60641506296 0.0
1.11114046604 1.6629392246 0.0
1.02820548839 1.71545722 0.0
0.942793473654 1.7638425287 0.0
0.855110186862 1.80797858625 0.0
0.765366864732 1.84775906502 0.0
0.673779706786 1.88308813037 0.0
0.58056935451 1.91388067146 0.0
0.485960359807 1.94006250639 0.0
0.390180644033 1.96157056081 0.0
0.293460948911 1.97835301993 0.0
0.196034280659 1.99036945334 0.0
0.0981353486547 1.99759091241 0.0
-0.0981353486543 1.99759091241 0.0
-0.196034280658 1.99036945334 0.0
-0.29346094891 1.97835301993 0.0
-0.390180644031 1.96157056081 0.0
-0.485960359805 1.94006250639 0.0
-0.580569354507 1.91388067146 0.0
-0.673779706783 1.88308813037 0.0
-0.765366864728 1.84775906502 0.0
-0.855110186858 1.80797858625 0.0
-0.94279347365 1.7638425287 0.0
-1.02820548838 1.71545722 0.0
-1.11114046604 1.66293922461 0.0
-1.19139860898 1.60641506296 0.0
-1.26878656832 1.54602090673 0.0
-1.34311790969 1.48190225071 0.0
-1.41421356237 1.41421356238 0.0
-1.48190225071 1.3431179097 0.0
-1.54602090672 1.26878656833 0.0
-1.60641506296 1.19139860899 0.0
-1.6629392246 1.11114046604 0.0
-1.71545722 1.02820548839 0.0
-1.7638425287 0.942793473654 0.0
-1.80797858625 0.855110186862 0.0
-1.84775906502 0.765366864732 0.0
-1.88308813037 0.673779706786 0.0
-1.91388067146 0.58056935451 0.0
-1.94006250639 0.485960359807 0.0
-1.96157056081 0.390180644033 0.0
-1.97835301993 0.293460948911 0.0
-1.99036945334 0.196034280659 0.0
-1.99759091241 0.0981353486547 0.0
-1.99759091241 -0.0981353486543 0.0
-1.99036945334 -0.196034280658 0.0
-1.97835301993 -0.29346094891 0.0
-1.96157056081 -0.390180644031 0.0
-1.94006250639 -0.485960359805 0.0
-1.91388067146 -0.580569354507 0.0
-1.88308813037 -0.673779706783 0.0
-1.84775906502 -0.765366864728 0.0
-1.80797858625 -0.855110186858 0.0
-1.7638425287 -0.94279347365 0.0
-1.71545722 -1.02820548838 0.0
-1.66293922461 -1.11114046604 0.0
-1.60641506296 -1.19139860898 0.0
-1.54602090673 -1.26878656832 0.0
-1.48190225071 -1.34311790969 0.0
-1.41421356238 -1.41421356237 0.0
-1.3431179097 -1.48190225071 0.0
-1.26878656833 -1.54602090672 0.0
-1.19139860899 -1.60641506296 0.0
-1.11114046604 -1.6629392246 0.0
-1.02820548839 -1.71545722 0.0
-0.942793473654 -1.7638425287 0.0
-0.855110186862 -1.80797858625 0.0
-0.765366864732 -1.84775906502 0.0
-0.673779706786 -1.88308813037 0.0
-0.58056935451 -1.91388067146 0.0
-0.485960359807 -1.94006250639 0.0
-0.390180644033 -1.96157056081 0.0
-0.293460948911 -1.97835301993 0.0
-0.196034280659 -1.99036945334 0.0
-0.0981353486547 -1.99759091241 0.0
0.0981353486543 -1.99759091241 0.0
0.196034280658 -1.99036945334 0.0
0.29346094891 -1.97835301993 0.0
0.390180644031 -1.96157056081 0.0
0.485960359805 -1.94006250639 0.0
0.580569354507 -1.91388067146 0.0
0.673779706783 -1.88308813037 0.0
0.765366864728 -1.84775906502 0.0
0.855110186858 -1.80797858625 0.0
0.94279347365 -1.7638425287 0.0
1.02820548838 -1.71545722 0.0
1.11114046604 -1.66293922461 0.0
1.19139860898 -1.60641506296 0.0
1.26878656832 -1.54602090673 0.0
1.34311790969 -1.48190225071 0.0
1.41421356237 -1.41421356238 0.0
1.48190225071 -1.3431179097 0.0
1.54602090672 -1.26878656833 0.0
1.60641506296 -1.19139860899 0.0
1.6629392246 -1.11114046604 0.0
1.71545722 -1.02820548839 0.0
1.7638425287 -0.942793473654 0.0
1.80797858625 -0.855110186862 0.0
1.84775906502 -0.765366864732 0.0
1.88308813037 -0.673779706786 0.0
1.91388067146 -0.58056935451 0.0
1.94006250639 -0.485960359807 0.0
1.96157056081 -0.390180644033 0.0
1.97835301993 -0.293460948911 0.0
1.99036945334 -0.196034280659 0.0
1.99759091241 -0.0981353486547 0.0
0.995184726672 0.0980171403292 0.0
0.980785280403 0.195090322016 0.0
0.956940335732 0.290284677254 0.0
0.923879532512 0.382683432364 0.0
0.881921264349 0.471396736825 0.0
0.831469612303 0.555570233018 0.0
0.773010453364 0.634393284162 0.0
0.707106781188 0.707106781185 0.0
0.634393284165 0.773010453362 0.0
0.555570233021 0.831469612302 0.0
0.471396736827 0.881921264348 0.0
0.382683432366 0.923879532511 0.0
0.290284677255 0.956940335732 0.0
0.195090322016 0.980785280403 0.0
0.0980171403296 0.995184726672 0.0
-0.0980171403292 0.995184726672 0.0
-0.195090322016 0.980785280403 0.0
-0.290284677254 0.956940335732 0.0
-0.382683432364 0.923879532512 0.0
-0.471396736825 0.881921264349 0.0
-0.555570233018 0.831469612303 0.0
-0.634393284162 0.773010453364 0.0
-0.707106781185 0.707106781188 0.0
-0.773010453362 0.634393284165 0.0
-0.831469612302 0.555570233021 0.0
-0.881921264348 0.471396736827 0.0
-0.923879532511 0.382683432366 0.0
-0.956940335732 0.290284677255 0.0
-0.980785280403 0.195090322016 0.0
-0.995184726672 0.0980171403296 0.0
-0.995184726672 -0.0980171403292 0.0
-0.980785280403 -0.195090322016 0.0
-0.956940335732 -0.290284677254 0.0
-0.923879532512 -0.382683432364 0.0
-0.881921264349 -0.471396736825 0.0
-0.831469612303 -0.555570233018 0.0
-0.773010453364 -0.634393284162 0.0
-0.707106781188 -0.707106781185 0.0
-0.634393284165 -0.773010453362 0.0
-0.555570233021 -0.831469612302 0.0
-0.471396736827 -0.881921264348 0.0
-0.382683432366 -0.923879532511 0.0
-0.290284677255 -0.956940335732 0.0
-0.195090322016 -0.980785280403 0.0
-0.0980171403296 -0.995184726672 0.0
0.0980171403292 -0.995184726672 0.0
0.195090322016 -0.980785280403 0.0
0.290284677254 -0.956940335732 0.0
0.382683432364 -0.923879532512 0.0
0.471396736825 -0.881921264349 0.0
0.555570233018 -0.831469612303 0.0
0.634393284162 -0.773010453364 0.0
0.707106781185 -0.707106781188 0.0
0.773010453362 -0.634393284165 0.0
0.831469612302 -0.555570233021 0.0
0.881921264348 -0.471396736827 0.0
0.923879532511 -0.382683432366 0.0
0.956940335732 -0.290284677255 0.0
0.980785280403 -0.195090322016 0.0
0.995184726672 -0.0980171403296 0.0
-1.48869122094 -0.0736359866957 0.0
0.0736359866957 -1.48869122094 0.0
1.48869122094 0.0736359866957 0.0
-0.0736359866957 1.48869122094 0.0
-1.34719207712 -0.637728247123 0.0
0.637728247123 -1.34719207712 0.0
1.34719207712 0.637728247123 0.0
-0.637728247123 1.34719207712 0.0
1.00059515189 1.10473216295 0.0
-1.00059515189 -1.10473216295 0.0
1.10473216295 -1.00059515189 0.0
-1.10473216295 1.00059515189 0.0
-1.40321327813 0.502609496433 0.0
-0.502609496433 -1.40321327813 0.0
1.40321327813 -0.502609496433 0.0
0.502609496433 1.40321327813 0.0
-1.60468540067 -0.421677295263 0.0
0.421677295263 -1.60468540067 0.0
1.60468540067 0.421677295263 0.0
-0.421677295263 1.60468540067 0.0
0.243532793692 1.6496318229 0.0
1.6496318229 -0.243532793692 0.0
-1.6496318229 0.243532793692 0.0
-0.243532793692 -1.6496318229 0.0
-1.00366553941 1.3211670831 0.0
1.3211670831 1.00366553941 0.0
-1.3211670831 -1.00366553941 0.0
1.00366553941 -1.3211670831 0.0
-0.833787321191 -1.41278341949 0.0
1.41278341949 -0.833787321191 0.0
0.833787321191 1.41278341949 0.0
-1.41278341949 0.833787321191 0.0
-0.321294632762 1.28268007451 0.0
1.28268007451 0.321294632762 0.0
-1.28268007451 -0.321294632762 0.0
0.321294632762 -1.28268007451 0.0
-1.06208773474 -0.787697948655 0.0
0.787697948655 -1.06208773474 0.0
1.06208773474 0.787697948655 0.0
-0.787697948655 1.06208773474 0.0
0.194022878426 1.30799600047 0.0
1.30799600047 -0.194022878426 0.0
-1.30799600047 0.194022878426 0.0
-0.194022878426 -1.30799600047 0.0
-0.679802165198 -1.13418139237 0.0
1.13418139237 -0.679802165198 0.0
0.679802165198 1.13418139237 0.0
-1.13418139237 0.679802165198 0.0
1.74213026653 -0.00427948323987 0.0
0.00427948323987 1.74213026653 0.0
-1.74213026653 0.00427948323987 0.0
-0.00427948323987 -1.74213026653 0.0
-1.61115618355 -0.662730663046 0.0
0.662730663046 -1.61115618355 0.0
1.61115618355 0.662730663046 0.0
-0.662730663046 1.61115618355 0.0
1.23489817679 1.22884607355 0.0
-1.22884607355 1.23489817679 0.0
-1.23489817679 -1.22884607355 0.0
1.22884607355 -1.23489817679 0.0
0.501919785785 1.66835587203 0.0
1.66835587203 -0.501919785785 0.0
-1.66835587203 0.501919785785 0.0
-0.501919785785 -1.66835587203 0.0
1.22459127557 0.0601603116234 0.0
-0.0601603116234 1.22459127557 0.0
-1.22459127557 -0.0601603116234 0.0
0.0601603116234 -1.22459127557 0.0
-1.10106638198 -0.523353769816 0.0
0.523353769816 -1.10106638198 0.0
1.10106638198 0.523353769816 0.0
-0.523353769816 1.10106638198 0.0
-0.816973877276 -0.904875698514 0.0
0.904875698514 -0.816973877276 0.0
0.816973877276 0.904875698514 0.0
-0.904875698514 0.816973877276 0.0
0.408364893934 1.1413034214 0.0
-1.1413034214 0.408364893934 0.0
-0.408364893934 -1.1413034214 0.0
1.1413034214 -0.408364893934 0.0
0.234524155916 -1.75782035298 0.0
-1.75782035298 -0.234524155916 0.0
-0.234524155916 1.75782035298 0.0
1.75782035298 0.234524155916 0.0
-1.53426573699 -0.889360793689 0.0
0.889360793689 -1.53426573699 0.0
1.53426573699 0.889360793689 0.0
-0.889360793689 1.53426573699 0.0
1.59674525309 -0.731497308528 0.0
0.731497308528 1.59674525309 0.0
-0.731497308528 -1.59674525309 0.0
-1.59674525309 0.731497308528 0.0
-1.08237451067 -1.40090395297 0.0
1.40090395297 -1.08237451067 0.0
-1.40090395297 1.08237451067 0.0
1.08237451067 1.40090395297 0.0
-1.4728944804 -0.271223321231 0.0
0.271223321231 -1.4728944804 0.0
-0.271223321231 1.4728944804 0.0
1.4728944804 0.271223321231 0.0
-1.42675612741 -0.453286348038 0.0
[...]
<PointData Scalars="solution">
<DataArray type="Float64" Name="Real part" format="ascii">
0.08468996167979559
1.4600980848005571
-0.9663215547393684
1.4586905840336328
0.0
0.0
0.0
0.0
0.08385302492429819
0.07856956759309885
0.07246135759925887
0.06326446656121415
0.06139244100620683
0.07021455389879608
0.09028947773530424
0.12367847528113934
0.17530556568253813
0.23385104523853648
0.3057321853075176
0.37232980318820164
0.41956374267772745
0.44006524785079426
0.4216262787424415
0.3391937491612137
0.19762499791549448
-0.009355667721131278
-0.25415248831811155
-0.5267344015063847
-0.7929079388966043
-0.9981153521040553
-1.1191641900598002
-1.1147047228681946
-0.9651722040427053
-0.677021419473434
-0.27429236172302024
0.1919709562612961
0.6651355070410798
1.0695709738890724
1.3457698884611322
1.3901116202348998
1.158485155548031
0.7934561397063254
0.3655635365855433
-0.05474883819339488
-0.4128616661898156
-0.6620107139512663
-0.7691193625711972
-0.7388849430587989
-0.5892444169174345
-0.35822649318682426
-0.08478690270588504
0.18806205100792955
0.4230675640768604
0.5977693202709287
0.6953565114981399
0.7149724942331154
0.6610225169782389
0.5519345376797731
0.40120508357335566
0.21808412545720018
0.035419892703590306
-0.15210599099737737
-0.33032805683690175
-0.4829042743456227
-0.6160855175152162
-0.7291812071368918
-0.818126636315418
-0.8888746638051511
-0.9320151063819091
-0.9581865102195126
-0.9585355471919965
-0.9323049107751415
-0.888178138360866
-0.817259973175942
-0.7282851391936602
-0.6204688541082847
-0.48380010278904884
-0.32560843541870094
-0.1530368210645805
0.033233423915708105
0.21825934812995568
0.40002747686300494
0.5534043745722123
0.6608018950223586
0.7136812723072095
0.6953125324165012
0.5964751618219968
0.42317252707139097
0.18670770245719265
-0.08417505114710777
-0.35737387808236737
-0.5895535294232828
-0.7401303767640073
-0.7674777887570412
-0.6607672816462725
-0.41428213316321383
-0.05777513954539881
0.3688574132100856
0.797024701252198
1.1539386847297242
1.3923363669779554
1.3486446937607766
1.0668518911753264
0.6665653266108977
0.19329306055344966
-0.27546221633636736
-0.6767461775618405
-0.9654546954314058
-1.1130567668143736
-1.1189527013946705
-0.9988585956910383
-0.7928685388512782
-0.5278562498503915
-0.2519108142418496
-0.007494824469859052
0.1946834954050839
0.34137576246892076
0.4178337929397723
0.44439974765908674
0.4165801659804522
0.37223283553728687
0.3041185152172505
0.23565505856188645
0.17505149711770562
0.12306140639539262
0.08960275970738885
0.06811229200268087
0.06157357819577425
0.06346614285996893
0.07382241014798213
0.0787199166310712
0.08278760355186598
0.0
0.0
0.0
-2.220446049250313e-16
8.881784197001252e-16
0.0
0.0
-3.3306690738754696e-16
1.1102230246251565e-16
0.0
0.0
2.914335439641036e-16
0.0
0.0
0.0
0.0
0.0
0.0
9.020562075079397e-17
-5.551115123125783e-16
0.0
0.0
-2.220446049250313e-16
5.551115123125783e-16
0.0
0.0
-3.3306690738754696e-16
0.0
0.0
0.0
0.0
0.0
0.0
1.1102230246251565e-16
4.440892098500626e-16
0.0
0.0
-2.220446049250313e-16
-1.5543122344752192e-15
0.0
0.0
5.412337245047638e-16
0.0
0.0
0.0
0.0
0.0
0.0
9.020562075079397e-17
-5.551115123125783e-16
0.0
0.0
3.3306690738754696e-16
5.551115123125783e-16
0.0
0.0
2.220446049250313e-16
0.0
0.0
0.0
1.2455040585159605
1.072101609957832
-0.38531888947304416
0.7860609311536232
0.8092731209188402
-0.04588999695798568
-0.06107300323926379
-1.6540359942526988
-0.14459547443059717
-1.021946860541299
-0.043090070646161445
-0.4684969259129483
1.021962819957578
-1.2341365575557848
-0.16043968912284912
0.28511688631130105
0.6783714348827175
0.5008480689546295
-0.1592357198595219
-0.5155372740291113
1.1081912589615934
-0.24736962475033153
0.616294996221927
0.47025884080949637
-1.19421834410664
0.15152136983566233
0.1816505709543378
-0.3169121376733711
-1.6439636444647374
0.12144209710812359
-0.4381009082397548
0.5202779544931135
-0.532213413335843
-0.2684152186980292
1.174754480186469
0.5906712272055168
-0.03510003513670529
-0.11084092835336423
-0.06265714439786396
-1.2874466749931401
0.7441377887338404
-0.32998394819366483
1.2831411554898082
0.00979482651762753
-1.441413460651486
-0.07509950443879668
-0.043863511426886936
0.3892045424539603
-0.2063114657955396
1.3980121622480821
0.2210308266226283
1.3875590519759275
0.45563065726237223
-0.41981497064336903
0.0547186690484065
-1.3121250353890082
0.05210219372412522
-0.2190683182357574
-0.19474423259206258
0.0428970090654312
0.10007486326205695
-0.05708415494244978
0.37852570614682435
-0.7103509871216236
-0.2916929407579198
0.29430068902128836
1.1131219910343109
0.49495594568264933
0.5657625868826132
0.12639555713906148
-0.11555943639692923
-1.0139156293905682
-0.7373586426576966
-0.07065156685614382
-0.07559135652097926
-0.39628878335217915
0.2834528496940647
0.7726343551091064
-0.755432667585396
-0.16332382393716577
1.1259388024894617
0.09915634642629995
0.7447673056468641
-0.15047546119558441
0.4492467817132001
-0.6530865110454789
0.22138778992281005
-1.326459979078213
0.10875557541850955
-0.5747388282257472
-1.404559135576585
0.4440190418881649
-0.7750740078066072
0.25986452989184283
0.31621264420082507
-0.3146509809376077
1.1849670829646397
0.9208176489588982
-0.06010458928946205
-0.3111268929607913
1.069786051746061
0.4266488837758798
-1.0060767871808691
-0.19425703249181026
0.023230834381459897
-1.6748648323797242
0.35413729235287567
-0.24497837341079143
1.2247385091386378
-0.37077092553756275
1.0996121375881502
0.6211615635509937
-0.011893760322988334
-1.2031458183383976
-0.26177800686889074
-0.18208208261514214
-0.2720991052556548
1.1689232075652547
-0.2916849706439444
0.8274105155786826
-0.24658030336489545
0.22950395101512905
-1.6003395770416746
0.025153867198627944
0.7114803431432044
-0.1376613962201596
-1.7230067998203604
-0.023898339369964106
-0.004456814935244191
0.053198221607386575
-0.12306860120583502
-0.6164863913340953
1.2365302385920438
-0.10022227477659645
-0.19983476724038926
1.0264745723875512
0.29362755420358044
-0.403369610550402
0.35191626376295315
-0.1930463954720779
-0.12558612723640172
0.6461720870448568
0.2925719568987618
-0.06883811878974883
0.2409472936851368
-1.163371227411147
-0.7681019696972291
0.3665985896251748
-0.21576462438319033
-0.13756958003244146
0.883194005130389
0.42752942130626426
-0.24150028023500933
0.4198683300407703
0.9376811604111562
0.15509181574307462
0.16073305981302521
-0.007049361414721678
-0.06909053546822624
-0.9034176362740787
-0.8660952331221504
-0.06548404557820875
-0.02885912307466676
0.04161104391820003
-0.1533119948898232
-0.5617190342156395
0.697124843277896
0.27759873060852497
-0.062215046349946124
-0.6638451086330865
-0.25795786985070335
-0.055928294340098716
0.8168346662790615
-0.2663352840880587
-0.1941047590417675
0.384161848067709
-0.8516643490224578
-0.09185297380460064
0.08420144024188359
0.4097528901608165
-0.04818114916036337
0.12812410253651274
-0.17632292053243498
0.4568121127697651
0.32487825358282385
0.4392452827823651
-0.5055256385904057
-0.7335965962390318
0.8708456725831589
1.1537714309722813
-0.2896544883112463
0.5173131478632512
0.09056583454591316
-1.7032552222364665
0.5607479406330964
-0.3804988600074446
0.06577849672719738
-0.2733251043474677
-1.2408493756175663
0.10164766037098588
0.7459353574598844
-0.204006117800569
-1.5974343741856378
0.0015601601439974022
0.12934343653529623
-0.349633108947205
1.327724582832421
0.8182876351158183
1.0005623581033567
0.3185530620582476
-1.146645805300131
-0.18180536310430617
1.3678812722144742
0.5838717215095819
-0.38017919031445313
0.7601994247604325
-1.538534863353933
0.4864194293960086
-0.049132513976674286
-0.0723248778224882
-0.5820565217398642
-0.10977990768994816
-0.9212244604768655
-0.08411450988387997
-0.2639326749651696
0.5912600688068098
1.1885317730264529
-0.6318069720546232
-0.1300958194725078
-0.10606414078742499
-1.3029854156403835
-0.05402163782037933
0.13015037535673568
0.8123194756237888
-1.4033295386539244
-0.12864185832301628
-0.08684215853078274
1.4215533424343008
1.3240455424851274
-0.32099812689983503
0.17553126544345832
-1.19312146977409
0.24306435443733854
-0.8250056303089168
-0.07275484221011075
0.2697769043071334
0.3255115997507364
-0.014356552787205379
0.05995303232074439
0.04146720686273048
-0.9350146393083285
-0.5479981078338936
0.32374100737596656
0.43708822427521477
-0.5583682956014537
-0.7737054767858865
-1.4016389993028748
-0.058872618117506326
0.8146133114676941
-0.014037009435760583
1.1338246683433748
0.9043853495825276
1.2220720112882728
-0.33284971603117364
-0.690713281949037
-0.024905657556520105
-0.48727083859618475
-0.08211970366199009
0.879333428475138
-0.737093440805885
-0.17226166523555475
0.4681883006401716
-0.06101440361797329
1.4751499574098337
-0.44355816454277625
1.4445437284386315
0.09093796202950427
-0.9800966043320789
0.00485952950084001
-0.7003184578525714
0.24263496836345533
0.16069562248982522
0.319596290174161
0.11441196328160907
-0.1951944340445712
-0.36584162793593866
-0.09492407097749733
0.006223313528832042
1.3357260854727975
0.4910947492558132
-0.2480324474509925
1.0218316184163085
-0.06492756670470745
-0.9632391790909525
0.5821631387832799
0.07387632552450152
0.13349610521912303
-0.7766785766947079
-0.0028599222271828983
-0.176477208729668
-0.16086078264561632
0.6727571666688954
-0.15806501839375708
0.543437778506084
0.727276041869323
0.2854100115748045
-0.1872514369952621
0.15904037230229406
0.34417284583384594
0.09106076647311645
-0.5945971952145683
-0.07924021568781608
-0.4391633833468458
-0.046711980995761015
-0.043334242891505004
-0.2508359213080127
-0.44829634917873723
-0.10469910277156957
0.17537747181680297
0.4704676072887295
-0.24128962328738524
1.1287501589263838
0.4314325532860173
1.368436974979514
0.5600851352127663
-0.49382048947806145
-1.54845043954341
0.10165043299276988
-0.01619439960933089
-0.15743871431838607
0.5584578378828668
-1.1942114255949288
-0.6522719694747516
0.11912459482619098
-0.0540581605977255
-0.12906439141071488
-1.1041033673376004
0.20472007307021067
0.22146300751906622
-0.8788596411146202
-1.1843730611489
0.2435617605089283
0.4081327968685332
-0.4925514204303452
0.5214739879521246
1.0375101708723402
0.40203072205024803
-0.21457142446433142
0.4711608525989206
-0.5034372590210385
0.1755760928909602
-1.5011180348870656
0.10022886158957522
-0.4722763019081426
-1.5963772704607462
0.5784710180188625
-0.039980969382459666
1.001289163326018
-0.4635159937857298
1.1276897959715362
0.25522018448210215
-0.9806695465110338
0.28535547909212056
-0.8396203970711977
-0.205193724240501
0.35389179289611405
-0.2186498440127407
0.47671934667514726
1.3710758467656552
0.839470067826419
-0.3855550244393757
0.5641058146685134
0.35373448320628126
1.0508848436717122
-1.1305033532332998
-0.19301772616464186
-0.12256711877573712
-1.0100411244578311
-0.07341707360269734
-0.516330855181926
0.7915778335207713
0.08468526628391415
-0.11146848249035196
-1.4966079268184451
0.8892410063901505
-0.431826214965328
-0.0337699997651688
0.739769686781318
0.9386684649605896
-0.3569104015916914
0.11599272835512009
1.3028288235197962
1.2143784786801732
0.6821532399555066
-0.279489723377377
-0.5725108364607447
-1.6816493863359483
-0.030204929594219387
-0.14338947752746967
0.46910182452270294
-0.019941868169046736
-1.467612241237863
0.017161159000353976
-0.18250527341170164
-0.34890727172598646
0.31385125279024184
-1.538503133979439
0.1075378316263409
-0.534868268362174
-0.239902993529016
1.0432628221949076
0.6731288061926668
-1.4531884525910792
0.05235873724126716
0.09675292355964477
-0.2651929235681058
0.28672881504241243
1.08224089950735
1.0678678612368726
-0.32603385649601624
-0.2852237899088945
0.5087544457992635
-1.7346108981001627
0.04352729334466554
-0.2254305437106882
0.5119544271289512
0.22446752633426997
-0.1191134131679922
-0.501094974953618
-0.038436183679791625
-0.023601270418769138
-0.01410318943330735
0.5671385958609398
-0.038577373931486525
-0.14081076294021166
0.25280021242296125
-0.5492963415342561
-0.047810607712108766
0.02102854133256682
0.14503774226948352
0.7152689138912083
-0.24974935470717308
-1.6649553728009836
0.01667912338470323
1.2683303975334526
0.8850938825369244
-0.3341612448849114
0.9980920830252051
-0.14804511593642766
-0.2912613906096828
-0.9031062721431204
0.024630699401073652
0.8298830834180742
-1.2449048833705667
0.11184985728075769
-0.09621709539962109
-0.267961789564864
0.018120927344192045
-0.33765135528740964
-0.12049189999219212
0.37644967928358997
-0.19957740038991323
0.5010820062776749
-0.2689645189135402
1.0308859199777638
0.06572368584514071
-0.13618316264846464
0.6290221702593323
-0.28463935092639825
-0.09283601018757248
0.25906542794190274
0.3890185405779259
-0.9227976699864338
0.25518722492844104
0.3453561880657854
-0.37668748589503925
0.12127245936197067
-0.8456838350791984
-1.020310129173727
-0.0001121318933112736
1.2900229034452686
1.014122888586949
0.355482360824433
-0.3646462294849173
0.9522727236119686
-0.3945391364696851
0.8474057781943364
1.3131557933906794
-1.3773209925233876
0.9872121323373664
0.20396747075937172
-0.1431693093747457
-0.029047631744920643
-1.7139713336535403
0.6009181771745044
-0.1316217361425307
-0.7889290202350746
1.1573124773140742
0.5713053932744271
-0.24345744933011393
-1.3546224151439978
-0.015115035473304339
-0.18952321559059893
-0.12763844067790733
-0.8701783029211663
-0.07953493799057629
-0.6657553619639922
-0.11146062827559511
0.9054359407402349
-1.5199407448845546
-0.10673058534599622
0.095430675915818
1.001816961340022
0.4156488265017789
-0.7704464166627686
-0.21098093834943427
-0.3013789279286539
-0.09589974070437846
-1.000705279333486
-0.0739869375088778
-0.2736560064510677
0.5961692713645562
1.1479913463009548
-0.3039534031985266
-1.2792264105812245
-0.10362620688166109
0.06114604560836567
0.5565441550509221
-0.1376168649153513
-1.001587248765481
0.8649557252223268
0.2949678099124896
0.056439678338186194
-0.14947388332392358
-0.19779749548360534
-1.0554015231739098
0.8959876691570208
-0.24222095336313154
0.8167677503021609
-0.18389937060677697
1.3032876504031594
1.3512023819102763
-0.017562417960583193
-0.6007478692628363
-0.20890792308824657
-0.5737556157237362
0.05676428830283564
-0.7137658669143149
0.33855161684682233
0.48456846671247283
-0.0017055209683674022
0.10877089272316659
0.8487871979345577
0.9000119354194552
1.2530680836529386
-0.3261423958714802
0.1675793966288582
0.05274417160977163
0.005417524156168564
-0.4307379063501991
0.08099525787280171
-0.2990678900208762
1.1700147157867011
0.6113738563154237
-1.2169488427967694
0.40419395133679215
0.019342549067173254
-0.08994813834115559
1.2061760087706932
0.4185310701847951
-0.3200468706201314
0.5236677579888513
-1.0399660809016493
-0.07019034543086416
-0.08115276529011362
-0.141111066462754
-0.0029741714625361806
0.5338780826539973
-0.5304563160786296
0.617820438738113
0.3323236612768625
-0.6098421164757706
0.3853630887374786
-0.6645361927693971
0.36689052322597326
0.30361325739457745
-0.7291836781470303
-0.8269131890040614
0.0038139700790918996
-0.25843094482672335
0.8923936865013968
0.917490024837297
0.3753187899128016
-0.36493400273004734
-1.590857348861801
0.10687692459153109
0.6675323886570417
-0.2941325527212395
0.038658175434989284
-1.7270927025501883
-0.13121771346929373
0.17986319273824758
0.511601343816196
0.118143810306641
0.4919543835317314
0.2167384722832506
-0.12220352670742085
-0.012996235336750539
0.14637243174012904
0.025127749541704603
-0.4648005677133157
-0.04335708797560378
-0.409764257385433
-0.03464940519084625
-0.016110280087834328
-0.050195548989225625
0.9659930641933956
0.45339225383525883
-0.428153278637633
-0.22231866515021426
-0.0679836533984185
-0.0443473525728455
-0.059485481448226296
-0.9981901833465909
1.0646573661097527
-0.035019055152931244
-0.2668767644782806
0.5390892993268647
0.0055046934093822
0.2912814684622452
-1.1021359807482882
-0.0812319623775404
0.17703113742505194
0.4440636449532372
0.33805960178163924
0.2765190927982327
0.14693440780749306
-0.9953167646518261
-0.018987902638284038
-0.9407188459951582
-0.011439181378217034
1.4666589794910716
1.4803985150440806
-0.6397559170001113
-0.6297842105509475
-0.27809967824947085
-0.5415953064717497
0.05467037930205923
-0.16527915641749774
1.4337825079024287
1.2885297104321274
0.009375298942098487
0.2771863542822277
-0.3107079071759941
0.015375681014038745
-1.0180972805301516
-0.3175032907762444
0.18084433270409106
0.11348265079912623
-0.05485435062355942
-1.4339545492432388
-0.5868726400480744
0.1980306215105404
0.47787200121561413
0.33702563326818774
-0.25666310863079417
-0.07828042474734276
0.14987489325892261
-0.07275922734415419
-0.3398706153814608
0.32694054519042565
0.11723866729981336
-0.030741298534550654
-0.2872850272314128
-0.1939794050161212
-0.026119249006173684
-0.4016753955781989
-0.05733906153325785
0.07583263882631952
0.2573619022045036
-0.20699591296258552
-0.09312071225567778
0.39997121684830556
0.17126670994860538
-0.37028633373080533
0.27433557851369184
0.17841480120353403
-1.238854668918838
0.17113104564532933
-0.6996869348188903
-1.367805557866481
0.4080830273405891
-0.8872118743225075
0.2565166022267638
0.22316718763594312
-0.8923659420436968
-0.36192773908556997
0.8496217213954396
0.335627240094733
1.350282372897962
-1.4879563082902183
-0.04890478020522448
-0.12753534056835691
0.19604389089056656
-1.5281127302618969
-0.08353293848535881
-0.0014987262910426402
0.619754947409644
-0.3063329084273666
0.7362854069876666
1.2690958086137027
-0.267497461994281
-0.22655359293288807
1.2778386794535042
0.7555278033296553
-0.30924843693490367
1.1291083806443032
0.48505658361748627
-0.2294165309109395
-0.8566695221144092
0.22779437993221405
-0.1210880126853986
-0.049714194605382636
-1.5001328768983095
-0.27741423346029537
-0.1373098548964431
-0.06232117630696163
-1.190703529254088
-1.16319652760879
0.2581300246445437
0.43194915463971073
-0.54557577115848
0.7924806458698103
0.16696949033947384
-0.12654266244783052
0.26386397789460225
-1.0562861975289297
-0.13365181919206448
0.17298437986593773
0.686466767961236
0.44384459754123085
0.9830412539090123
-0.21972660640418368
-0.5643178939358404
-0.9332573809556854
-0.16123861157790975
0.8021309511744596
0.2615952958788528
-0.7099986860521941
-0.08063451371421326
-0.5364802426827819
-0.0838153264267748
-0.6800231453327251
1.3152809891681927
0.003184974782915101
1.2912945523785835
0.09684918851893726
-0.9756773227525631
0.21149152366834062
-0.9277973267896149
0.1986836494519471
0.37587197646261505
0.5501299639419865
0.0072797485318509825
-0.22873662037032197
0.07908855272630066
0.9032571342768028
0.4219022500636328
0.304508535105673
-0.24028180782097316
0.9264550831360607
0.3292452631111378
0.3315652033254504
0.04980217190566072
-0.8653730448405174
-0.0836483795934298
-0.7220546576753148
-0.06323404719192849
-0.05369869291230234
-0.16776120135728068
0.3779284786900724
-0.4233117891395112
0.48138155706815233
-0.3129448200979413
0.09490594683204329
0.10955762124464774
0.012207927475337166
0.15386539339036298
0.23918754609928317
-0.6819711299342253
0.11376584073813145
-1.20646254538987
-0.12021685785253772
1.4407710246934937
1.4701428881233585
-0.19188945207136726
-0.7152895450082588
0.005905026962754079
-0.20796066087410908
0.07667408435364997
-0.6256821609673537
0.2719712950613268
0.4366468455090937
-1.1260176422675705
1.1215131154345126
1.1434846323529975
-0.34610296808731644
0.5957295690140333
0.6585073228994575
-0.22670190016553415
0.013292028687567625
-1.7474912762934731
-1.240450429476443
0.024258843469567776
-0.14502160865567293
-0.21276077588123626
-1.5018290695620236
0.03054371356875807
0.8875887110152145
-0.07835899329236862
-0.07174774571716447
0.11813823487637792
-1.2686772285866128
-0.06864567123023443
0.662203171408705
-0.32902696506746165
1.252473223754306
0.24967770601900063
1.1810070580039846
0.6305089735818665
-0.288139504619326
-0.19804568175945458
-0.07154834578468035
0.21026628482099996
-0.05835306568910936
-1.3034758128193937
-0.2967171403024887
0.37899205906901545
0.4716403060445548