<VTKFile type="UnstructuredGrid" version="1.0" byte_order="LittleEndian" header_type="UInt64">
<UnstructuredGrid>
<Piece NumberOfPoints="1352" NumberOfCells="2512">
<Points>
<DataArray NumberOfComponents="3" type="Float64">
2.0 0.0 2.0
0.0 2.0 0.0
-2.0 0.0 -2.0
0.0 -2.0 0.0
1.0 0.0 1.0
0.0 1.0 0.0
-1.0 0.0 -1.0
0.0 -1.0 0.0
1.99759091241 0.0981353486543 1.99759091241
1.99036945334 0.196034280658 1.99036945334
1.97835301993 0.29346094891 1.97835301993
1.96157056081 0.390180644031 1.96157056081
1.94006250639 0.485960359805 1.94006250639
1.91388067146 0.580569354507 1.91388067146
1.88308813037 0.673779706783 1.88308813037
1.84775906502 0.765366864728 1.84775906502
1.80797858625 0.855110186858 1.80797858625
1.7638425287 0.94279347365 1.7638425287
1.71545722 1.02820548838 1.71545722
1.66293922461 1.11114046604 1.66293922461
1.60641506296 1.19139860898 1.60641506296
1.54602090673 1.26878656832 1.54602090673
1.48190225071 1.34311790969 1.48190225071
1.41421356238 1.41421356237 1.41421356238
1.3431179097 1.48190225071 1.3431179097
1.26878656833 1.54602090672 1.26878656833
1.19139860899 1.60641506296 1.19139860899
1.11114046604 1.6629392246 1.11114046604
1.02820548839 1.71545722 1.02820548839
0.942793473654 1.7638425287 0.942793473654
0.855110186862 1.80797858625 0.855110186862
0.765366864732 1.84775906502 0.765366864732
0.673779706786 1.88308813037 0.673779706786
0.58056935451 1.91388067146 0.58056935451
0.485960359807 1.94006250639 0.485960359807
0.390180644033 1.96157056081 0.390180644033
0.293460948911 1.97835301993 0.293460948911
0.196034280659 1.99036945334 0.196034280659
0.0981353486547 1.99759091241 0.0981353486547
-0.0981353486543 1.99759091241 -0.0981353486543
-0.196034280658 1.99036945334 -0.196034280658
-0.29346094891 1.97835301993 -0.29346094891
-0.390180644031 1.96157056081 -0.390180644031
-0.485960359805 1.94006250639 -0.485960359805
-0.580569354507 1.91388067146 -0.580569354507
-0.673779706783 1.88308813037 -0.673779706783
-0.765366864728 1.84775906502 -0.765366864728
-0.855110186858 1.80797858625 -0.855110186858
-0.94279347365 1.7638425287 -0.94279347365
-1.02820548838 1.71545722 -1.02820548838
-1.11114046604 1.66293922461 -1.11114046604
-1.19139860898 1.60641506296 -1.19139860898
-1.26878656832 1.54602090673 -1.26878656832
-1.34311790969 1.48190225071 -1.34311790969
-1.41421356237 1.41421356238 -1.41421356237
-1.48190225071 1.3431179097 -1.48190225071
-1.54602090672 1.26878656833 -1.54602090672
-1.60641506296 1.19139860899 -1.60641506296
-1.6629392246 1.11114046604 -1.6629392246
-1.71545722 1.02820548839 -1.71545722
-1.7638425287 0.942793473654 -1.7638425287
-1.80797858625 0.855110186862 -1.80797858625
-1.84775906502 0.765366864732 -1.84775906502
-1.88308813037 0.673779706786 -1.88308813037
-1.91388067146 0.58056935451 -1.91388067146
-1.94006250639 0.485960359807 -1.94006250639
-1.96157056081 0.390180644033 -1.96157056081
-1.97835301993 0.293460948911 -1.97835301993
-1.99036945334 0.196034280659 -1.99036945334
-1.99759091241 0.0981353486547 -1.99759091241
-1.99759091241 -0.0981353486543 -1.99759091241
-1.99036945334 -0.196034280658 -1.99036945334
-1.97835301993 -0.29346094891 -1.97835301993
-1.96157056081 -0.390180644031 -1.96157056081
-1.94006250639 -0.485960359805 -1.94006250639
-1.91388067146 -0.580569354507 -1.91388067146
-1.88308813037 -0.673779706783 -1.88308813037
-1.84775906502 -0.765366864728 -1.84775906502
-1.80797858625 -0.855110186858 -1.80797858625
-1.7638425287 -0.94279347365 -1.7638425287
-1.71545722 -1.02820548838 -1.71545722
-1.66293922461 -1.11114046604 -1.66293922461
-1.60641506296 -1.19139860898 -1.60641506296
-1.54602090673 -1.26878656832 -1.54602090673
-1.48190225071 -1.34311790969 -1.48190225071
-1.41421356238 -1.41421356237 -1.41421356238
-1.3431179097 -1.48190225071 -1.3431179097
-1.26878656833 -1.54602090672 -1.26878656833
-1.19139860899 -1.60641506296 -1.19139860899
-1.11114046604 -1.6629392246 -1.11114046604
-1.02820548839 -1.71545722 -1.02820548839
-0.942793473654 -1.7638425287 -0.942793473654
-0.855110186862 -1.80797858625 -0.855110186862
-0.765366864732 -1.84775906502 -0.765366864732
-0.673779706786 -1.88308813037 -0.673779706786
-0.58056935451 -1.91388067146 -0.58056935451
-0.485960359807 -1.94006250639 -0.485960359807
-0.390180644033 -1.96157056081 -0.390180644033
-0.293460948911 -1.97835301993 -0.293460948911
-0.196034280659 -1.99036945334 -0.196034280659
-0.0981353486547 -1.99759091241 -0.0981353486547
0.0981353486543 -1.99759091241 0.0981353486543
0.196034280658 -1.99036945334 0.196034280658
0.29346094891 -1.97835301993 0.29346094891
0.390180644031 -1.96157056081 0.390180644031
0.485960359805 -1.94006250639 0.485960359805
0.580569354507 -1.91388067146 0.580569354507
0.673779706783 -1.88308813037 0.673779706783
0.765366864728 -1.84775906502 0.765366864728
0.855110186858 -1.80797858625 0.855110186858
0.94279347365 -1.7638425287 0.94279347365
1.02820548838 -1.71545722 1.02820548838
1.11114046604 -1.66293922461 1.11114046604
1.19139860898 -1.60641506296 1.19139860898
1.26878656832 -1.54602090673 1.26878656832
1.34311790969 -1.48190225071 1.34311790969
1.41421356237 -1.41421356238 1.41421356237
1.48190225071 -1.3431179097 1.48190225071
1.54602090672 -1.26878656833 1.54602090672
1.60641506296 -1.19139860899 1.60641506296
1.6629392246 -1.11114046604 1.6629392246
1.71545722 -1.02820548839 1.71545722
1.7638425287 -0.942793473654 1.7638425287
1.80797858625 -0.855110186862 1.80797858625
1.84775906502 -0.765366864732 1.84775906502
1.88308813037 -0.673779706786 1.88308813037
1.91388067146 -0.58056935451 1.91388067146
1.94006250639 -0.485960359807 1.94006250639
1.96157056081 -0.390180644033 1.96157056081
1.97835301993 -0.293460948911 1.97835301993
1.99036945334 -0.196034280659 1.99036945334
1.99759091241 -0.0981353486547 1.99759091241
0.995184726672 0.0980171403292 0.995184726672
0.980785280403 0.195090322016 0.980785280403
0.956940335732 0.290284677254 0.956940335732
0.923879532512 0.382683432364 0.923879532512
0.881921264349 0.471396736825 0.881921264349
0.831469612303 0.555570233018 0.831469612303
0.773010453364 0.634393284162 0.773010453364
0.707106781188 0.707106781185 0.707106781188
0.634393284165 0.773010453362 0.634393284165
0.555570233021 0.831469612302 0.555570233021
0.471396736827 0.881921264348 0.471396736827
0.382683432366 0.923879532511 0.382683432366
0.290284677255 0.956940335732 0.290284677255
0.195090322016 0.980785280403 0.195090322016
0.0980171403296 0.995184726672 0.0980171403296
-0.0980171403292 0.995184726672 -0.0980171403292
-0.195090322016 0.980785280403 -0.195090322016
-0.290284677254 0.956940335732 -0.290284677254
-0.382683432364 0.923879532512 -0.382683432364
-0.471396736825 0.881921264349 -0.471396736825
-0.555570233018 0.831469612303 -0.555570233018
-0.634393284162 0.773010453364 -0.634393284162
-0.707106781185 0.707106781188 -0.707106781185
-0.773010453362 0.634393284165 -0.773010453362
-0.831469612302 0.555570233021 -0.831469612302
-0.881921264348 0.471396736827 -0.881921264348
-0.923879532511 0.382683432366 -0.923879532511
-0.956940335732 0.290284677255 -0.956940335732
-0.980785280403 0.195090322016 -0.980785280403
-0.995184726672 0.0980171403296 -0.995184726672
-0.995184726672 -0.0980171403292 -0.995184726672
-0.980785280403 -0.195090322016 -0.980785280403
-0.956940335732 -0.290284677254 -0.956940335732
-0.923879532512 -0.382683432364 -0.923879532512
-0.881921264349 -0.471396736825 -0.881921264349
-0.831469612303 -0.555570233018 -0.831469612303
-0.773010453364 -0.634393284162 -0.773010453364
-0.707106781188 -0.707106781185 -0.707106781188
-0.634393284165 -0.773010453362 -0.634393284165
-0.555570233021 -0.831469612302 -0.555570233021
-0.471396736827 -0.881921264348 -0.471396736827
-0.382683432366 -0.923879532511 -0.382683432366
-0.290284677255 -0.956940335732 -0.290284677255
-0.195090322016 -0.980785280403 -0.195090322016
-0.0980171403296 -0.995184726672 -0.0980171403296
0.0980171403292 -0.995184726672 0.0980171403292
0.195090322016 -0.980785280403 0.195090322016
0.290284677254 -0.956940335732 0.290284677254
0.382683432364 -0.923879532512 0.382683432364
0.471396736825 -0.881921264349 0.471396736825
0.555570233018 -0.831469612303 0.555570233018
0.634393284162 -0.773010453364 0.634393284162
0.707106781185 -0.707106781188 0.707106781185
0.773010453362 -0.634393284165 0.773010453362
0.831469612302 -0.555570233021 0.831469612302
0.881921264348 -0.471396736827 0.881921264348
0.923879532511 -0.382683432366 0.923879532511
0.956940335732 -0.290284677255 0.956940335732
0.980785280403 -0.195090322016 0.980785280403
0.995184726672 -0.0980171403296 0.995184726672
-1.48869122094 -0.0736359866957 -1.48869122094
0.0736359866957 -1.48869122094 0.0736359866957
1.48869122094 0.0736359866957 1.48869122094
-0.0736359866957 1.48869122094 -0.0736359866957
-1.34719207712 -0.637728247123 -1.34719207712
0.637728247123 -1.34719207712 0.637728247123
1.34719207712 0.637728247123 1.34719207712
-0.637728247123 1.34719207712 -0.637728247123
1.00059515189 1.10473216295 1.00059515189
-1.00059515189 -1.10473216295 -1.00059515189
1.10473216295 -1.00059515189 1.10473216295
-1.10473216295 1.00059515189 -1.10473216295
-1.40321327813 0.502609496433 -1.40321327813
-0.502609496433 -1.40321327813 -0.502609496433
1.40321327813 -0.502609496433 1.40321327813
0.502609496433 1.40321327813 0.502609496433
-1.60468540067 -0.421677295263 -1.60468540067
0.421677295263 -1.60468540067 0.421677295263
1.60468540067 0.421677295263 1.60468540067
-0.421677295263 1.60468540067 -0.421677295263
0.243532793692 1.6496318229 0.243532793692
1.6496318229 -0.243532793692 1.6496318229
-1.6496318229 0.243532793692 -1.6496318229
-0.243532793692 -1.6496318229 -0.243532793692
-1.00366553941 1.3211670831 -1.00366553941
1.3211670831 1.00366553941 1.3211670831
-1.3211670831 -1.00366553941 -1.3211670831
1.00366553941 -1.3211670831 1.00366553941
-0.833787321191 -1.41278341949 -0.833787321191
1.41278341949 -0.833787321191 1.41278341949
0.833787321191 1.41278341949 0.833787321191
-1.41278341949 0.833787321191 -1.41278341949
[...]
<PointData Scalars="solution">
<DataArray type="Float64" Name="Real part" format="ascii">
0.4057609713996445
0.4343158890917256
1.2099127211621354
0.3060619703124433
0.5000000000000004
-1.0
0.5000000000000004
-1.0
0.016389504208268596
-0.10343838325195556
-0.5123433152498595
-0.4433685061082782
-0.4812265251427593
-0.870951607597815
-0.17212814534443963
0.1261850416927348
0.5034489179351456
0.6351238329537163
0.8644113628208808
0.8548567788141599
0.8187561747880706
0.4831194239844414
0.5362080980436521
0.28180627182896106
0.353445806516507
0.14548673564321365
0.33879555042574944
0.16261327839622058
-0.012279654069885316
-0.1391456280716869
-0.07249800490776362
0.13896530970446366
0.07595057520719095
0.14280707612859678
0.23023781827693862
0.30005939867591896
0.09183801592250515
0.6169879202557953
0.7428324031638179
0.5186907347682614
0.5114740223506621
0.4817261819640077
0.4208890906461403
0.21724282221750466
0.05890593295370672
0.08909006066222225
0.017177108603320092
0.007004397617414518
-0.03394137899845091
-0.057961789113581574
0.05820178769335911
0.1231793842847483
0.1673030489921526
0.1843094519290151
0.1538631629888103
0.10272652657687481
0.07453445851522596
0.04692473377942941
0.04129268362276782
-0.15205855327542925
-0.04775834452519677
0.06317844820724333
0.19352978533799442
0.028060758721875967
-0.2625024711674757
-0.5270962438770119
-0.8986409255054275
-0.536974883494246
-0.45638821770139126
-0.12483473899102268
0.6592697509884295
0.5723045146633459
0.6552054312546256
0.5829947887327916
0.6085507460838688
0.16431338688230268
-0.15764051617670835
0.17514980776817723
0.17351049013042724
0.698576085007949
0.8440049817983521
1.0582365621034857
1.0395340843610277
0.8655644964829912
0.6988565751734233
0.24880336256464702
0.3721068449774246
0.3096379059119455
0.08585097190787366
-0.2860288273089967
-0.6073405770504121
-0.5997327568271374
-0.23079508267836318
0.02794050603426816
-0.0529934128785875
0.0822846693706767
0.2838372627019475
0.44107585517743964
0.4167695525478182
0.7005146903717081
0.6472197705744832
0.27793867324440014
0.31934276481800755
0.23685466844035666
0.05423669898280952
-0.09317738419907662
-0.19016488111816618
-0.10131767803970874
-0.09700198178181878
-0.09346079098421708
-0.14573260200203547
-0.18884002008197587
-0.08198948463143445
-0.0209254183980965
0.016796543369881452
0.042231667395333995
0.041210782599578645
0.05377532496864084
0.07288548932995567
0.08489930149844928
0.1020340738693707
-0.2093510439451857
-0.09290682316143904
-0.02406810353136024
0.06593483857507298
-0.03834389555182147
-0.1703474164931202
-0.34903601619217633
-0.7624025072806632
-0.7055747363575702
-0.5160544041731696
-0.3221273635933316
0.5173649895100944
0.5680094174353794
0.6472464918304219
0.7462771287086063
0.8511676418432478
0.9423340200648915
0.9953584682846512
0.9839025948094605
0.8850232955994717
0.6862863561014235
0.3929024105408472
0.032178730288746044
-0.34745413476279524
-0.6842712589675638
-0.916892174405217
-0.9168921744059776
-0.6842712589701376
-0.3474541347677969
0.03217873028140106
0.39290241053257596
0.6862863560941066
0.8850232955944143
0.9839025948074518
0.9953584682855092
0.9423340200671412
0.8511676418457711
0.7462771287106327
0.6472464918316562
0.5680094174359577
0.5173649895102547
0.5173649895100944
0.5680094174353794
0.6472464918304219
0.7462771287086063
0.8511676418432478
0.9423340200648915
0.9953584682846512
0.9839025948094605
0.8850232955994717
0.6862863561014235
0.3929024105408472
0.032178730288746044
-0.34745413476279524
-0.6842712589675638
-0.916892174405217
-0.9168921744059776
-0.6842712589701376
-0.3474541347677969
0.03217873028140106
0.39290241053257596
0.6862863560941066
0.8850232955944143
0.9839025948074518
0.9953584682855092
0.9423340200671412
0.8511676418457711
0.7462771287106327
0.6472464918316562
0.5680094174359577
0.5173649895102547
-0.5984500467579151
-0.7406521267179591
-0.4911668922589927
-0.003859966758476955
-0.44363146642410073
0.3836280814255619
-0.9792419595027763
0.7046676837816127
-0.8408950991789571
-0.4380035664313514
1.4260564371027808
1.268768654406348
-1.307046972898051
0.5252742922888064
-0.5572490820165744
0.17304207629746254
0.09013421483560805
0.6505964690689807
1.854646755672719
0.12824391640995764
-0.7032532946306487
0.2813227022361458
0.27354758507703675
-0.5840669231412668
0.5329978246958722
0.45999411722816025
-0.1501799429679039
0.7474908095194246
-0.07810063149031805
0.6592765832806453
-0.27993057394255005
0.2279566353254203
0.702226008724094
-1.1922187522731873
-0.07104827348280258
0.8584349240521928
-1.2238520040298513
-2.385331854795859
-0.662347898725407
-2.422467476773453
0.035545379875315114
-0.5992002522933214
-0.10388265448550683
0.06734185858522296
0.12721251355281477
-0.7755184863832032
1.2397573539502231
-0.02574783378875267
0.6888608236918257
-1.839934727056278
-0.32458948290543793
-0.9521990971307975
-0.7035429878630364
-0.6742845265232371
1.0871411431276838
-0.6803269561137357
0.33579543787199995
0.4337630665345811
0.4654508164471195
0.7448150934744949
-0.005161917114746345
0.24051943958500835
0.4574994281663313
0.20492298324108774
-1.8665355066
0.8939875377317982
-0.1522827100603269
0.5893522423596679
0.4482255661227338
0.38477029234749194
-0.5485004151915267
-0.7468384048063573
-0.15941776030708402
-0.7266010642894782
0.24507544319781457
0.28577046219086855
-0.08287844677177057
1.7117439621392385
-0.17406381909915147
0.8250268526395671
1.131921491523771
0.7243553279688203
0.07496256990103134
1.6812743044688048
0.38935855244885414
-1.0224312102930884
-0.20022672438762926
-0.819643687807647
0.4458469877718307
0.26861095467971
0.052684346618148706
0.11997191232639359
-0.054019759553783436
-0.72805888292514
-0.32890156096095025
-1.073153248325622
-0.28513713149128217
-0.04602299678941304
0.7309744474188103
-0.5078090045450696
-0.4569036436661816
0.5042480708019293
1.2292771337462045
-0.3366064392442686
-1.3894927153266985
0.8643572467335896
-0.9185870701920718
0.7615044128858386
-1.1098449528742091
-0.7319595477369033
0.24367335927390374
-0.2776518787842397
-0.12186975552880235
1.0030256766435253
-1.0229961770887606
1.1045020702841888
0.6984311924181198
-0.49139645918227565
0.11688368337967353
0.45534016304860553
-0.9668804594843889
0.7198401074723084
-0.24923502252268712
1.0252696588968813
-0.8073144681577021
-0.056474482167268476
0.020366367550492735
-0.402548764375886
1.5111842148252146
0.34102165338656026
-0.2035698187113187
-0.31933194907461304
-0.7571773265399285
0.31139785208937104
1.2110414806732663
-0.1733030022916226
0.8735000372965717
-0.2236731948014908
0.8511937660879599
-0.04222285619388305
0.6926976495319566
-0.32042917865480747
-0.08744504614322447
-0.46406689630024983
-1.2183945182723475
-0.4133152843129628
-0.01948837743614718
-0.8944654673008086
-0.6795270386225497
0.7232395112392261
0.3852456181389291
0.9220434886250995
-1.256609304210548
-0.3012574893810185
-0.011197353666538614
-0.3448613780247163
0.4718937711975382
0.00951222722229712
0.13693634839410468
-0.746703933876207
0.2751511130872948
0.09102245259612454
0.2198403339162563
1.2943352990222168
-0.23293397628050994
0.12840857316164925
0.45541207453266747
0.9971034674255038
0.28116623351248393
-0.18658392876188992
-0.3705773567820053
-0.5574320885741217
0.8868636399089406
-0.36506998592814094
0.24153289832631658
-0.47510224971617093
0.21308578313550436
0.8886466132396852
1.4603227491826878
1.9128298480930288
1.640364668787119
0.08466226477852482
0.7951913692905361
0.3504027273594548
0.7473302494621481
0.8347612598909496
-0.6532093868280591
-0.6240266519334241
0.19598046385774995
-0.7430898518248126
0.9935543121142554
-0.7797733795768695
-0.9288413738750637
0.4064975213115024
-0.22401504649742354
0.13002934210717254
1.6393101467277227
-1.3344861195285302
-0.29240535219337704
2.005785499112838
-1.181862826154724
0.09167669076232217
0.35481996479059563
-0.2864080716705005
1.156101405192857
-1.6423487311429166
-0.3085537249758947
0.6955498718475311
-0.07521099150858208
0.11624231755185023
-0.6807199585512775
-0.7638738952361961
-0.651024377627834
0.529607955459737
-1.4750844995009222
1.1394999602873523
-2.0251393647362312
-0.2734813618252773
-1.6274200302643336
-1.0224245213225427
-0.9663897497892351
-1.9785217880021175
-1.5845984136212363
-0.06668126722680168
0.3527295285112225
-0.0660009162705303
0.6751735064584096
0.20303932696204505
-0.48438426621165437
-0.17476848503212053
-0.1582861246697233
-0.9599582472117354
0.1467207985406148
-0.5526956578237929
-0.02318322611323494
-0.7413921115714176
0.9695193272317922
0.9174576349710952
0.09568054124001364
0.42333829906277953
0.21192327378572903
-1.2561264402672172
-0.14975171946039875
-1.5649017045475762
0.21856186971799207
-0.25431619496612073
-0.31052517528136137
-0.4423764842990703
0.5849527125572143
0.6853491583369941
0.2051123402424336
0.15973283811609632
-1.602612952836549
-1.0153188300239935
-0.18083521622093607
-0.24224559201073087
0.3894549008467075
0.4058688942820024
-0.7682719438929922
0.3712624333223002
-1.3509716394248572
-1.2089847818111288
-1.1605875720505539
-0.1079313032272051
1.5622433879022637
-0.1631480093140745
-0.3634402058652423
1.774019383094105
-1.0393922122224488
0.7711530414740339
-0.21186609763936037
0.4863922816708161
0.7674474538391426
0.16341399392199754
1.1721166164450099
0.8069844233741379
0.9591747613512973
-1.0301721142493185
-0.3623004638834603
-1.2488890627356497
0.6679465508998396
0.02557831719808474
0.9237728505749688
0.35272128545124715
1.0766881913762005
0.05571172538272558
-0.03850290958570208
0.33620884837289583
-1.46715653790938
0.5682091871988428
0.48803128615102437
-1.1539348496799335
1.9246381749166441
-0.19969844698251957
-0.14555187348143825
0.1779683885923513
0.4805511311528709
0.49893514363370456
0.08270424546404233
0.8108028830333949
0.1352059326081273
-0.24942557928253348
0.008715928862257354
-0.05937979571505443
0.300295482579592
-0.16896346578919672
-0.8136555896439579
-0.05182481950081601
0.7226944140235502
0.5364516721805633
-0.4720371801209509
0.09281754210263536
0.3828348355750846
0.4878886617611165
0.6251119143272826
1.41390731910771
-0.38405225643167035
0.847601901804742
-0.2935942287943003
1.3451412138222587
0.7600301326348354
-1.7570395853969576
-0.40079939642145535
-1.0510817134721455
-0.3377156266374166
-0.8841421678113474
-0.6949700926843931
-0.4136287956501989
0.1477068291655382
0.494727795479565
-0.46998471103451256
0.6054415836576081
-0.08980165874896272
0.7543041440403244
0.8227755535078616
-1.0165861325822059
-0.5520191466007472
-1.2231279705321338
-0.901280953485715
0.005361976308035354
-0.3010366039019256
-1.1052677740159147
-0.7090077029022692
-0.63300272950996
0.549563488775675
0.9518597322115262
0.04159818188865466
1.6470089174530302
0.29797740478798074
-0.0966219803477749
-0.29718726244610283
-0.03947391452000198
0.4890709179637076
-0.04356354762345848
0.16086235013618025
0.06112294622971827
0.9154922977039172
0.31966923935099983
0.936731164799172
0.8596193872447039
0.4179325670601445
-1.0843271177598572
0.7343954270264785
-1.3669038218326177
0.16158906142275647
-1.0095093956166035
-0.5453549756409837
-0.8275313917608106
-0.6821995356530955
0.7413045509241495
-1.3224872629656015
1.4546917778181738
0.002532153325360118
-0.7390238126068733
0.2769564184446439
-0.6274594169261961
-0.541675489020852
-0.39657894919657605
-1.3842649805422937
-0.8292440216699455
-0.2586680229196628
-1.1076211059094354
-1.0882131660016194
-1.759783832185463
-0.45143062181177734
0.5093063734650637
-0.5311338992523371
0.061428310210314904
0.45346767782685704
-0.6151022415792532
0.5815782747798864
-0.7310078021423873
-0.3210617193194596
0.47647445964159
-0.9775724116064435
1.6097939417487466
-0.10460951268825094
-0.4239475360821259
0.015859128405033496
-0.49389703152225933
-1.0668038661134474
0.49468020968952964
-1.4171363185301555
0.6354788849030738
-1.332775841998209
0.9043630179928808
-0.25883283083407815
1.3517872557919175
1.1615676912627735
1.1157761474205434
-0.09230420692580527
0.3682682704780686
1.1239899682226706
0.12161342479880624
-0.5619078001711679
1.0976040485650636
-0.30591382638587317
-0.2925944128070021
-0.04848369420576556
0.17449678432987586
-0.25920437042619
0.4494212769096244
-0.05187831339100195
0.8680852948216654
0.2941916950104222
0.6436230851729005
0.8206502942233914
0.2611601405809264
-0.04761010196936874
0.7916146784353367
0.8579714473199663
-0.13215635455959693
0.4564435125940293
-0.7545495154941859
-0.14960229312508286
-0.8144726699384934
0.4554604518476474
1.1260688138970179
0.4792371798062883
1.8963160038059266
-0.49956540064684357
0.459310364750802
0.567492900898475
-0.8433290181961838
-1.80115465768359
-0.6891882546801157
0.22458021359711083
-1.512423328068961
-1.1164489920481362
1.8866344815528429
-0.35732507274084235
2.1732334536847477
-1.1342709293459814
0.6126314948860911
0.40492203163956425
-0.21774582484644403
-0.02894559402905844
1.1217247875296192
0.6908984582109794
-0.06931898895785675
0.9469479978988805
-0.7003225424657448
1.059612404358277
-0.7318447384998119
-0.6153261105155269
1.075339385397442
0.2966239565327602
-0.3550623545665779
0.08663748259211164
2.339514108483862
0.5100969412062644
0.5787073081808195
-0.09629285873787716
0.6819182962136147
0.219644683423044
0.00557757416173596
0.3443776060018376
0.23817668153985194
0.19210435886363034
0.3157423172283885
-0.3337419745070918
-0.24507159647425575
0.5482716327959055
-0.7638189990732039
0.33622127460816226
-1.1114031233067376
-0.46720817959563266
-0.8198519541630146
1.1120110283889895
-0.34520803236474434
0.5125487158794924
-0.7078754542186001
-1.2289919121727655
0.38975190234966334
-0.4246320988535182
0.2237177096923331
0.5205535736699114
-0.8271307845573254
0.1399830450181
-0.0038752814464926085
-0.33012582574341554
1.341357851838291
-0.9244925890691228
1.094272571404841
0.8125554347296586
-0.20410208948130695
-0.9884685298656236
0.8637788892843842
-1.0806207109455408
0.1885048353508624
-0.6692418875394108
0.0805105969401351
0.2081645519801615
0.9305174584610989
0.4830303345800748
-0.6270436375240954
-0.8020876667870852
-2.572918275553141
-2.3874676423752264
-0.01626906753530793
-0.24400313869204476
-0.1914060881854819
0.4135747421359222
0.04563369160562942
0.1782245603256632
-0.7266227552045006
1.4298817654138987
-0.21066415846412803
0.23125462083925222
0.33134660665011734
-0.49657647088611545
0.6222723243650847
0.12291557245135733
-0.746393477236936
1.6110770683448845
1.343437186407248
-0.2164322575661831
0.15610224889709465
0.3840164690027636
0.7363244026168299
0.7805984843604905
0.313210305194377
0.34633679383592975
1.4405709498062205
0.2315468273844861
-0.774177196887603
0.4312148347202527
-0.6093635663296278
0.732060653106461
1.0963256666449375
0.1053447170502678
-0.13550005617246402
-0.9428618800339211
-1.5398400376024837
-0.8462913756341797
-0.7907878391941303
-0.10924601110415413
0.06157784805231532
0.14081991450603082
1.0236365842804251
0.9456277980154408
-1.8998940364836328
-0.2197076983605326
0.9147624310115655
-0.930474677763276
0.06754700222936401
0.1247282538187512
-0.6740837085947438
-0.275323148360416
0.6153156315079593
-1.6270272570945807
1.0968294591721879
0.0687796194902458
-0.6513894407898598
-0.12343660653031757
0.5883805309074356
0.5605121742932926
0.3350539325155901
0.9906735137218055
0.43861419050801953
0.8730407723182418
-0.7990082483935312
0.9541402409653534
-0.9947928323939562
-1.1306090322804767
-1.7520617566846153
-0.022356841629565843
-0.5816942560469336
-0.7822652917621729
-0.3387986205393809
-0.29576611172983513
-0.8047095854964895
-1.1028539120774397
0.34909254172571824
0.6997206277811421
-1.6612853150571274
-1.0500665037757975
-0.17777057433119126
-0.1738952730350629
0.013568402678080365
-0.6951526716785489
-0.6158716791326787
0.34242676471791555
-0.6714210512375315
0.5467554151297536
-0.44674883594230513
0.062187851805123574
-0.3886273358838637
0.864901989516112
0.5767308290921991
-0.11986333369309389
0.7014821078105185
0.6688238021414245
0.7435134601603406
0.7113172318419733
1.4737536520636885
0.11347649144190972
1.1041318602332992
0.44273473169108674
-1.2264648699341572
-0.41457547539986567
-1.067713948285808
-0.3938694041306405
-0.6652436464139503
0.5317783264853642
-0.3003387353814847
-0.22286900724467656
-0.2985866733015606
1.5479220817248782
1.4215447257840563
0.2208092065035809
0.1565820323964599
-0.05185459443861906
-0.014551293627213049
0.3106050121814678
0.34153183305684154
0.3988022693409537
-1.1306673342462665
-0.0554627516603199
-1.4160362959915909
0.8716125034241416
0.2694404796413241
0.8315676384446149
1.3344117724774864
0.00791046946969012
0.9045393455644295
0.032855017786143116
0.6982934812143239
0.7939429909604897
-1.449926941758149
-0.5722935578757105
1.0050574049158765
-0.37595084708643034
-0.6333838356593285
1.7178075496945813
-0.6926429994340665
0.19235863861165706
0.6918515008955369
0.7159215954066017
0.5507854094636049
-0.16618714868967843
-0.22497860235039494
-0.4181616930280922
-0.4479778757824381
-0.1889303493440344
0.05026250100319023
-0.0038715646774357434
0.7401839641812853
0.3796554211089928
-0.37979820896496974
0.6908355080905797
0.6215120837247355
0.7781335842766076
1.4461558645695296
0.4626577411197103
0.7523831864392201
0.1833640499976948
0.9851388334477147
0.911641073396879
1.328970544097778
-0.6358244233672558
0.5708518811997473
0.8947105653208764
-0.610936295873647
-1.3423187074735017
1.7285050209494872
2.092220528725837
-0.19327326733339237
0.1997011347049807
0.10518281300482005
-0.24737171575047195
-0.5156080669708861
-0.576061334631151
-1.2396312902388626
-0.9047600288197463
-0.011423933900736503
-0.9714319322855944
1.1448019103841844
0.5475361828689076
-0.6024521102364284
0.1258581245628891
-1.0055519801016917
1.3093510161219326
-0.15726499699816168
-0.013396293240217225
-0.8335771888659729
0.24110790111620112
-0.36647132076754285
0.33225489122765856
0.01998693119650915
0.7157184412624908
0.12094882871500158
0.9804554408279343
-0.3616654472676157
0.855700198775655
-2.1361084557545307
-0.26469666302983663
0.40511799886302885
-0.9352822922491296
-0.21118402538453834
-1.4162459314629399
-2.0710274610831405
-1.0083758346851195
-2.337997455240726
-1.3737302160447458
-2.351074943775197
-0.30202686068186335
-2.1165454795633667
-0.7478655711390839
0.3181644047426907
0.6681634259940548
-0.9115843017507032
1.3619035160535669
0.759010656302233
1.837732772092166
0.09586451920414026
-0.07364512743862198
0.8293357219374937
0.17289751922321386
1.882400125357275
-0.3726684217258727
1.597913685965805
0.7691407347503857
-0.21262596187352298
-0.7237460749859348
-0.5968817022425368
0.21255470097335727
0.48537375798200005
0.040468825634175816
0.06910555524488186
-0.8215148263865683
-0.8652633356614411
0.5461411518907078
0.4616330866917533
0.8347879689053209
0.5873570969916181
-0.019952500295136594
-0.6843944987162024
0.35205967482517475
-0.43724940633983483
0.3204925837892856
-0.3419988588565077
-0.41500489311900796
-0.05593412073741205
-0.8996839412048143
0.7446401652582955
0.3575866551233655
0.6476544393073465
-0.25165988444499643
-1.8979762436404077
-0.12022995820560073
-0.152288890122466
0.7544824644439231
0.2815388059880405
-0.7225731966679151
-0.13205392525299686
-0.03461530800921543
0.0881617359546812
0.3588108340334148
1.2139146720261176
-1.2402890171568104
0.15049885710974906
-0.9642263294692203
-0.035461428581446755
0.5695689993821214
-0.16524504515420343
0.8094264197323959
-0.011490047525725421
-0.5932895611542756
-1.6394576061088315
1.0873716996510716
-1.334096157617919
0.9108556142089977
0.017264611660293583
0.8526978246319643
0.16715723458986753
0.23078054591636887
0.4003836430083392
0.10329395683675882
0.9121502544362644
-0.30615191882562565
-1.3073956900837083
-0.8816744876118126
-0.29312774549895265
-0.1831782601411262
-0.4376825483449441
0.21244476471962548
0.4434892702673464
-0.3652377070653895
0.328148636281725
-1.1036639092329152
0.6268069240025697
-0.35416641162683477
1.7827141908776278
1.5243253378489514
-1.128236232421995
0.4804737462365484
0.14791407468267673
-3.0490702951015436