<VTKFile type="UnstructuredGrid" version="1.0" byte_order="LittleEndian" header_type="UInt64">
<UnstructuredGrid>
<Piece NumberOfPoints="1352" NumberOfCells="2512">
<Points>
<DataArray NumberOfComponents="3" type="Float64">
2.0 0.0 0.0
0.0 2.0 0.0
-2.0 0.0 0.0
0.0 -2.0 0.0
1.0 0.0 0.0
0.0 1.0 0.0
-1.0 0.0 0.0
0.0 -1.0 0.0
1.99759091241 0.0981353486543 0.0
1.99036945334 0.196034280658 0.0
1.97835301993 0.29346094891 0.0
1.96157056081 0.390180644031 0.0
1.94006250639 0.485960359805 0.0
1.91388067146 0.580569354507 0.0
1.88308813037 0.673779706783 0.0
1.84775906502 0.765366864728 0.0
1.80797858625 0.855110186858 0.0
1.7638425287 0.94279347365 0.0
1.71545722 1.02820548838 0.0
1.66293922461 1.11114046604 0.0
1.60641506296 1.19139860898 0.0
1.54602090673 1.26878656832 0.0
1.48190225071 1.34311790969 0.0
1.41421356238 1.41421356237 0.0
1.3431179097 1.48190225071 0.0
1.26878656833 1.54602090672 0.0
1.19139860899 1.60641506296 0.0
1.11114046604 1.6629392246 0.0
1.02820548839 1.71545722 0.0
0.942793473654 1.7638425287 0.0
0.855110186862 1.80797858625 0.0
0.765366864732 1.84775906502 0.0
0.673779706786 1.88308813037 0.0
0.58056935451 1.91388067146 0.0
0.485960359807 1.94006250639 0.0
0.390180644033 1.96157056081 0.0
0.293460948911 1.97835301993 0.0
0.196034280659 1.99036945334 0.0
0.0981353486547 1.99759091241 0.0
-0.0981353486543 1.99759091241 0.0
-0.196034280658 1.99036945334 0.0
-0.29346094891 1.97835301993 0.0
-0.390180644031 1.96157056081 0.0
-0.485960359805 1.94006250639 0.0
-0.580569354507 1.91388067146 0.0
-0.673779706783 1.88308813037 0.0
-0.765366864728 1.84775906502 0.0
-0.855110186858 1.80797858625 0.0
-0.94279347365 1.7638425287 0.0
-1.02820548838 1.71545722 0.0
-1.11114046604 1.66293922461 0.0
-1.19139860898 1.60641506296 0.0
-1.26878656832 1.54602090673 0.0
-1.34311790969 1.48190225071 0.0
-1.41421356237 1.41421356238 0.0
-1.48190225071 1.3431179097 0.0
-1.54602090672 1.26878656833 0.0
-1.60641506296 1.19139860899 0.0
-1.6629392246 1.11114046604 0.0
-1.71545722 1.02820548839 0.0
-1.7638425287 0.942793473654 0.0
-1.80797858625 0.855110186862 0.0
-1.84775906502 0.765366864732 0.0
-1.88308813037 0.673779706786 0.0
-1.91388067146 0.58056935451 0.0
-1.94006250639 0.485960359807 0.0
-1.96157056081 0.390180644033 0.0
-1.97835301993 0.293460948911 0.0
-1.99036945334 0.196034280659 0.0
-1.99759091241 0.0981353486547 0.0
-1.99759091241 -0.0981353486543 0.0
-1.99036945334 -0.196034280658 0.0
-1.97835301993 -0.29346094891 0.0
-1.96157056081 -0.390180644031 0.0
-1.94006250639 -0.485960359805 0.0
-1.91388067146 -0.580569354507 0.0
-1.88308813037 -0.673779706783 0.0
-1.84775906502 -0.765366864728 0.0
-1.80797858625 -0.855110186858 0.0
-1.7638425287 -0.94279347365 0.0
-1.71545722 -1.02820548838 0.0
-1.66293922461 -1.11114046604 0.0
-1.60641506296 -1.19139860898 0.0
-1.54602090673 -1.26878656832 0.0
-1.48190225071 -1.34311790969 0.0
-1.41421356238 -1.41421356237 0.0
-1.3431179097 -1.48190225071 0.0
-1.26878656833 -1.54602090672 0.0
-1.19139860899 -1.60641506296 0.0
-1.11114046604 -1.6629392246 0.0
-1.02820548839 -1.71545722 0.0
-0.942793473654 -1.7638425287 0.0
-0.855110186862 -1.80797858625 0.0
-0.765366864732 -1.84775906502 0.0
-0.673779706786 -1.88308813037 0.0
-0.58056935451 -1.91388067146 0.0
-0.485960359807 -1.94006250639 0.0
-0.390180644033 -1.96157056081 0.0
-0.293460948911 -1.97835301993 0.0
-0.196034280659 -1.99036945334 0.0
-0.0981353486547 -1.99759091241 0.0
0.0981353486543 -1.99759091241 0.0
0.196034280658 -1.99036945334 0.0
0.29346094891 -1.97835301993 0.0
0.390180644031 -1.96157056081 0.0
0.485960359805 -1.94006250639 0.0
0.580569354507 -1.91388067146 0.0
0.673779706783 -1.88308813037 0.0
0.765366864728 -1.84775906502 0.0
0.855110186858 -1.80797858625 0.0
0.94279347365 -1.7638425287 0.0
1.02820548838 -1.71545722 0.0
1.11114046604 -1.66293922461 0.0
1.19139860898 -1.60641506296 0.0
1.26878656832 -1.54602090673 0.0
1.34311790969 -1.48190225071 0.0
1.41421356237 -1.41421356238 0.0
1.48190225071 -1.3431179097 0.0
1.54602090672 -1.26878656833 0.0
1.60641506296 -1.19139860899 0.0
1.6629392246 -1.11114046604 0.0
1.71545722 -1.02820548839 0.0
1.7638425287 -0.942793473654 0.0
1.80797858625 -0.855110186862 0.0
1.84775906502 -0.765366864732 0.0
1.88308813037 -0.673779706786 0.0
1.91388067146 -0.58056935451 0.0
1.94006250639 -0.485960359807 0.0
1.96157056081 -0.390180644033 0.0
1.97835301993 -0.293460948911 0.0
1.99036945334 -0.196034280659 0.0
1.99759091241 -0.0981353486547 0.0
0.995184726672 0.0980171403292 0.0
0.980785280403 0.195090322016 0.0
0.956940335732 0.290284677254 0.0
0.923879532512 0.382683432364 0.0
0.881921264349 0.471396736825 0.0
0.831469612303 0.555570233018 0.0
0.773010453364 0.634393284162 0.0
0.707106781188 0.707106781185 0.0
0.634393284165 0.773010453362 0.0
0.555570233021 0.831469612302 0.0
0.471396736827 0.881921264348 0.0
0.382683432366 0.923879532511 0.0
0.290284677255 0.956940335732 0.0
0.195090322016 0.980785280403 0.0
0.0980171403296 0.995184726672 0.0
-0.0980171403292 0.995184726672 0.0
-0.195090322016 0.980785280403 0.0
-0.290284677254 0.956940335732 0.0
-0.382683432364 0.923879532512 0.0
-0.471396736825 0.881921264349 0.0
-0.555570233018 0.831469612303 0.0
-0.634393284162 0.773010453364 0.0
-0.707106781185 0.707106781188 0.0
-0.773010453362 0.634393284165 0.0
-0.831469612302 0.555570233021 0.0
-0.881921264348 0.471396736827 0.0
-0.923879532511 0.382683432366 0.0
-0.956940335732 0.290284677255 0.0
-0.980785280403 0.195090322016 0.0
-0.995184726672 0.0980171403296 0.0
-0.995184726672 -0.0980171403292 0.0
-0.980785280403 -0.195090322016 0.0
-0.956940335732 -0.290284677254 0.0
-0.923879532512 -0.382683432364 0.0
-0.881921264349 -0.471396736825 0.0
-0.831469612303 -0.555570233018 0.0
-0.773010453364 -0.634393284162 0.0
-0.707106781188 -0.707106781185 0.0
-0.634393284165 -0.773010453362 0.0
-0.555570233021 -0.831469612302 0.0
-0.471396736827 -0.881921264348 0.0
-0.382683432366 -0.923879532511 0.0
-0.290284677255 -0.956940335732 0.0
-0.195090322016 -0.980785280403 0.0
-0.0980171403296 -0.995184726672 0.0
0.0980171403292 -0.995184726672 0.0
0.195090322016 -0.980785280403 0.0
0.290284677254 -0.956940335732 0.0
0.382683432364 -0.923879532512 0.0
0.471396736825 -0.881921264349 0.0
0.555570233018 -0.831469612303 0.0
0.634393284162 -0.773010453364 0.0
0.707106781185 -0.707106781188 0.0
0.773010453362 -0.634393284165 0.0
0.831469612302 -0.555570233021 0.0
0.881921264348 -0.471396736827 0.0
0.923879532511 -0.382683432366 0.0
0.956940335732 -0.290284677255 0.0
0.980785280403 -0.195090322016 0.0
0.995184726672 -0.0980171403296 0.0
-1.48869122094 -0.0736359866957 0.0
0.0736359866957 -1.48869122094 0.0
1.48869122094 0.0736359866957 0.0
-0.0736359866957 1.48869122094 0.0
-1.34719207712 -0.637728247123 0.0
0.637728247123 -1.34719207712 0.0
1.34719207712 0.637728247123 0.0
-0.637728247123 1.34719207712 0.0
1.00059515189 1.10473216295 0.0
-1.00059515189 -1.10473216295 0.0
1.10473216295 -1.00059515189 0.0
-1.10473216295 1.00059515189 0.0
-1.40321327813 0.502609496433 0.0
-0.502609496433 -1.40321327813 0.0
1.40321327813 -0.502609496433 0.0
0.502609496433 1.40321327813 0.0
-1.60468540067 -0.421677295263 0.0
0.421677295263 -1.60468540067 0.0
1.60468540067 0.421677295263 0.0
-0.421677295263 1.60468540067 0.0
0.243532793692 1.6496318229 0.0
1.6496318229 -0.243532793692 0.0
-1.6496318229 0.243532793692 0.0
-0.243532793692 -1.6496318229 0.0
-1.00366553941 1.3211670831 0.0
1.3211670831 1.00366553941 0.0
-1.3211670831 -1.00366553941 0.0
1.00366553941 -1.3211670831 0.0
-0.833787321191 -1.41278341949 0.0
1.41278341949 -0.833787321191 0.0
0.833787321191 1.41278341949 0.0
-1.41278341949 0.833787321191 0.0
-0.321294632762 1.28268007451 0.0
1.28268007451 0.321294632762 0.0
-1.28268007451 -0.321294632762 0.0
0.321294632762 -1.28268007451 0.0
-1.06208773474 -0.787697948655 0.0
0.787697948655 -1.06208773474 0.0
1.06208773474 0.787697948655 0.0
-0.787697948655 1.06208773474 0.0
0.194022878426 1.30799600047 0.0
1.30799600047 -0.194022878426 0.0
-1.30799600047 0.194022878426 0.0
-0.194022878426 -1.30799600047 0.0
-0.679802165198 -1.13418139237 0.0
1.13418139237 -0.679802165198 0.0
0.679802165198 1.13418139237 0.0
-1.13418139237 0.679802165198 0.0
1.74213026653 -0.00427948323987 0.0
0.00427948323987 1.74213026653 0.0
-1.74213026653 0.00427948323987 0.0
-0.00427948323987 -1.74213026653 0.0
-1.61115618355 -0.662730663046 0.0
0.662730663046 -1.61115618355 0.0
1.61115618355 0.662730663046 0.0
-0.662730663046 1.61115618355 0.0
1.23489817679 1.22884607355 0.0
-1.22884607355 1.23489817679 0.0
-1.23489817679 -1.22884607355 0.0
1.22884607355 -1.23489817679 0.0
0.501919785785 1.66835587203 0.0
1.66835587203 -0.501919785785 0.0
-1.66835587203 0.501919785785 0.0
-0.501919785785 -1.66835587203 0.0
1.22459127557 0.0601603116234 0.0
-0.0601603116234 1.22459127557 0.0
-1.22459127557 -0.0601603116234 0.0
0.0601603116234 -1.22459127557 0.0
-1.10106638198 -0.523353769816 0.0
0.523353769816 -1.10106638198 0.0
1.10106638198 0.523353769816 0.0
-0.523353769816 1.10106638198 0.0
-0.816973877276 -0.904875698514 0.0
0.904875698514 -0.816973877276 0.0
0.816973877276 0.904875698514 0.0
-0.904875698514 0.816973877276 0.0
0.408364893934 1.1413034214 0.0
-1.1413034214 0.408364893934 0.0
-0.408364893934 -1.1413034214 0.0
1.1413034214 -0.408364893934 0.0
0.234524155916 -1.75782035298 0.0
-1.75782035298 -0.234524155916 0.0
-0.234524155916 1.75782035298 0.0
1.75782035298 0.234524155916 0.0
-1.53426573699 -0.889360793689 0.0
0.889360793689 -1.53426573699 0.0
1.53426573699 0.889360793689 0.0
-0.889360793689 1.53426573699 0.0
1.59674525309 -0.731497308528 0.0
0.731497308528 1.59674525309 0.0
-0.731497308528 -1.59674525309 0.0
-1.59674525309 0.731497308528 0.0
-1.08237451067 -1.40090395297 0.0
1.40090395297 -1.08237451067 0.0
-1.40090395297 1.08237451067 0.0
1.08237451067 1.40090395297 0.0
-1.4728944804 -0.271223321231 0.0
0.271223321231 -1.4728944804 0.0
-0.271223321231 1.4728944804 0.0
1.4728944804 0.271223321231 0.0
-1.42675612741 -0.453286348038 0.0
[...]
<PointData Scalars="solution">
<DataArray type="Float64" Name="Real part" format="ascii">
0.08468996167979614
1.4600980848005576
-0.9663215547393684
1.4586905840336326
0.0
0.0
0.0
0.0
0.08385302492429875
0.07856956759309941
0.07246135759925953
0.06326446656121482
0.06139244100620733
0.07021455389879658
0.09028947773530456
0.12367847528113965
0.17530556568253824
0.23385104523853634
0.30573218530751745
0.3723298031882013
0.41956374267772717
0.44006524785079393
0.4216262787424411
0.3391937491612136
0.19762499791549437
-0.009355667721131167
-0.2541524883181113
-0.5267344015063845
-0.792907938896604
-0.9981153521040551
-1.1191641900598
-1.1147047228681943
-0.9651722040427049
-0.6770214194734334
-0.27429236172301963
0.19197095626129682
0.6651355070410805
1.069570973889073
1.3457698884611329
1.3901116202349
1.1584851555480313
0.7934561397063256
0.3655635365855432
-0.054748838193395266
-0.41286166618981607
-0.6620107139512668
-0.7691193625711976
-0.7388849430587994
-0.5892444169174349
-0.3582264931868246
-0.08478690270588521
0.18806205100792966
0.4230675640768606
0.5977693202709291
0.6953565114981403
0.7149724942331157
0.6610225169782394
0.5519345376797735
0.4012050835733562
0.21808412545720068
0.035419892703590694
-0.1521059909973771
-0.3303280568369014
-0.48290427434562233
-0.6160855175152156
-0.7291812071368913
-0.8181266363154175
-0.8888746638051506
-0.9320151063819087
-0.9581865102195123
-0.9585355471919965
-0.9323049107751417
-0.8881781383608663
-0.8172599731759425
-0.7282851391936607
-0.6204688541082852
-0.4838001027890494
-0.32560843541870155
-0.15303682106458122
0.033233423915707494
0.21825934812995507
0.40002747686300455
0.553404374572212
0.6608018950223584
0.7136812723072092
0.6953125324165008
0.5964751618219966
0.4231725270713907
0.18670770245719245
-0.08417505114710797
-0.3573738780823675
-0.5895535294232829
-0.7401303767640073
-0.7674777887570413
-0.6607672816462726
-0.4142821331632141
-0.05777513954539909
0.36885741321008547
0.7970247012521979
1.1539386847297237
1.392336366977955
1.3486446937607766
1.0668518911753264
0.6665653266108977
0.1932930605534496
-0.27546221633636725
-0.6767461775618403
-0.9654546954314056
-1.1130567668143732
-1.11895270139467
-0.998858595691038
-0.7928685388512777
-0.5278562498503911
-0.25191081424184913
-0.0074948244698587185
0.1946834954050839
0.34137576246892065
0.4178337929397723
0.44439974765908663
0.416580165980452
0.37223283553728653
0.3041185152172501
0.23565505856188618
0.1750514971177053
0.12306140639539238
0.08960275970738868
0.06811229200268087
0.0615735781957743
0.06346614285996904
0.07382241014798224
0.07871991663107153
0.08278760355186665
0.0
0.0
0.0
0.0
8.881784197001252e-16
0.0
0.0
-3.3306690738754696e-16
1.1102230246251565e-15
0.0
0.0
5.620504062164855e-16
0.0
0.0
0.0
0.0
0.0
0.0
9.020562075079397e-17
-5.551115123125783e-16
0.0
0.0
-6.661338147750939e-16
3.3306690738754696e-16
0.0
0.0
-5.551115123125783e-16
0.0
0.0
0.0
0.0
0.0
0.0
-7.771561172376096e-16
1.2212453270876722e-15
0.0
0.0
-2.220446049250313e-16
-7.771561172376096e-16
0.0
0.0
4.85722573273506e-17
0.0
0.0
0.0
0.0
0.0
0.0
9.020562075079397e-17
-1.1102230246251565e-16
0.0
0.0
1.1102230246251565e-16
1.3322676295501878e-15
0.0
0.0
2.220446049250313e-16
0.0
0.0
0.0
1.245504058515961
1.0721016099578327
-0.38531888947304305
0.7860609311536249
0.8092731209188392
-0.04588999695798501
-0.0610730032392649
-1.6540359942527
-0.1445954744305989
-1.0219468605412994
-0.04309007064616277
-0.4684969259129494
1.021962819957579
-1.234136557555785
-0.16043968912284934
0.28511688631130194
0.6783714348827168
0.5008480689546306
-0.159235719859521
-0.515537274029111
1.1081912589615954
-0.24736962475033042
0.6162949962219283
0.4702588408094964
-1.1942183441066414
0.15152136983566078
0.18165057095433712
-0.31691213767337123
-1.6439636444647374
0.1214420971081227
-0.43810090823975545
0.5202779544931135
-0.5322134133358425
-0.26841521869802853
1.1747544801864687
0.5906712272055177
-0.035100035136705815
-0.11084092835336468
-0.0626571443978654
-1.2874466749931415
0.7441377887338417
-0.32998394819366395
1.2831411554898091
0.009794826517627642
-1.441413460651486
-0.07509950443879782
-0.043863511426887825
0.3892045424539601
-0.20631146579553816
1.398012162248084
0.2210308266226289
1.387559051975928
0.4556306572623712
-0.41981497064336815
0.05471866904840639
-1.3121250353890088
0.05210219372412389
-0.21906831823575806
-0.19474423259206314
0.04289700906543048
0.10007486326205817
-0.05708415494244967
0.37852570614682535
-0.7103509871216238
-0.2916929407579189
0.29430068902128914
1.1131219910343113
0.4949559456826499
0.5657625868826126
0.1263955571390618
-0.11555943639692973
-1.013915629390569
-0.7373586426576967
-0.07065156685614471
-0.07559135652098037
-0.39628878335217993
0.283452849694065
0.7726343551091067
-0.755432667585396
-0.16332382393716605
1.1259388024894625
0.09915634642629989
0.7447673056468651
-0.1504754611955832
0.4492467817131992
-0.6530865110454784
0.22138778992280905
-1.326459979078214
0.10875557541850922
-0.5747388282257471
-1.4045591355765854
0.44401904188816543
-0.7750740078066078
0.25986452989184194
0.31621264420082484
-0.31465098093760857
1.1849670829646395
0.9208176489588993
-0.06010458928946111
-0.31112689296079066
1.0697860517460602
0.4266488837758809
-1.006076787180869
-0.19425703249181026
0.023230834381458343
-1.6748648323797257
0.3541372923528747
-0.24497837341079154
1.2247385091386391
-0.3707709255375612
1.0996121375881522
0.621161563550994
-0.011893760322990138
-1.2031458183383996
-0.26177800686889113
-0.18208208261514292
-0.2720991052556549
1.168923207565256
-0.2916849706439437
0.8274105155786842
-0.2465803033648969
0.2295039510151287
-1.6003395770416748
0.025153867198626445
0.7114803431432043
-0.13766139622016038
-1.7230067998203604
-0.023898339369965105
-0.004456814935243636
0.05319822160738591
-0.1230686012058343
-0.6164863913340954
1.2365302385920454
-0.10022227477659562
-0.19983476724038832
1.0264745723875512
0.29362755420357944
-0.4033696105504023
0.35191626376295293
-0.19304639547207794
-0.12558612723640084
0.6461720870448583
0.2925719568987617
-0.06883811878974833
0.24094729368513623
-1.1633712274111472
-0.7681019696972293
0.3665985896251752
-0.21576462438318977
-0.1375695800324409
0.883194005130389
0.4275294213062648
-0.24150028023500866
0.41986833004077095
0.9376811604111567
0.15509181574307496
0.16073305981302488
-0.007049361414721789
-0.06909053546822697
-0.9034176362740796
-0.8660952331221504
-0.06548404557820953
-0.028859123074667536
0.041611043918199475
-0.15331199488982314
-0.5617190342156396
0.6971248432778956
0.2775987306085254
-0.06221504634994712
-0.6638451086330874
-0.25795786985070346
-0.05592829434009927
0.8168346662790619
-0.26633528408805857
-0.19410475904176727
0.3841618480677096
-0.8516643490224579
-0.09185297380460122
0.08420144024188336
0.4097528901608165
-0.048181149160362424
0.1281241025365131
-0.17632292053243542
0.4568121127697655
0.3248782535828232
0.4392452827823645
-0.5055256385904053
-0.7335965962390323
0.870845672583159
1.1537714309722822
-0.28965448831124496
0.5173131478632526
0.09056583454591205
-1.7032552222364679
0.5607479406330953
-0.38049886000744426
0.06577849672719671
-0.2733251043474691
-1.2408493756175667
0.1016476603709845
0.7459353574598849
-0.20400611780056876
-1.5974343741856383
0.001560160143996847
0.12934343653529734
-0.3496331089472041
1.327724582832421
0.8182876351158191
1.000562358103356
0.31855306205824874
-1.1466458053001312
-0.1818053631043065
1.367881272214475
0.5838717215095823
-0.3801791903144516
0.7601994247604338
-1.5385348633539344
0.4864194293960077
-0.04913251397667395
-0.07232487782248936
-0.5820565217398643
-0.10977990768994927
-0.9212244604768669
-0.0841145098838817
-0.2639326749651696
0.5912600688068109
1.1885317730264537
-0.6318069720546232
-0.13009581947250903
-0.10606414078742563
-1.3029854156403835
-0.05402163782038069
0.13015037535673557
0.8123194756237889
-1.4033295386539244
-0.12864185832301728
-0.08684215853078149
1.4215533424343012
1.3240455424851285
-0.32099812689983487
0.1755312654434581
-1.1931214697740906
0.24306435443733754
-0.8250056303089162
-0.0727548422101113
0.26977690430713286
0.3255115997507363
-0.014356552787206156
0.05995303232074434
0.0414672068627312
-0.9350146393083288
-0.5479981078338929
0.3237410073759658
0.437088224275215
-0.5583682956014541
-0.7737054767858871
-1.4016389993028757
-0.05887261811750655
0.8146133114676932
-0.014037009435759806
1.1338246683433753
0.9043853495825285
1.2220720112882748
-0.3328497160311721
-0.6907132819490382
-0.024905657556521826
-0.4872708385961851
-0.08211970366199106
0.8793334284751391
-0.7370934408058851
-0.17226166523555453
0.46818830064017314
-0.061014403617972224
1.475149957409835
-0.44355816454277575
1.4445437284386315
0.0909379620295045
-0.9800966043320793
0.0048595295008391215
-0.7003184578525709
0.24263496836345455
0.1606956224898251
0.3195962901741606
0.11441196328160885
-0.19519443404457032
-0.3658416279359389
-0.09492407097749639
0.006223313528832264
1.3357260854727995
0.4910947492558142
-0.2480324474509913
1.0218316184163088
-0.06492756670470701
-0.9632391790909527
0.5821631387832791
0.07387632552450252
0.13349610521912142
-0.776678576694709
-0.0028599222271831204
-0.17647720872966846
-0.16086078264561576
0.6727571666688973
-0.15806501839375714
0.5434377785060852
0.727276041869323
0.28541001157480506
-0.18725143699526164
0.15904037230229462
0.3441728458338456
0.09106076647311678
-0.5945971952145687
-0.0792402156878162
-0.4391633833468458
-0.04671198099576168
-0.04333424289150578
-0.25083592130801313
-0.4482963491787373
-0.10469910277156974
0.17537747181680308
0.4704676072887296
-0.24128962328738357
1.1287501589263855
0.4314325532860177
1.3684369749795144
0.5600851352127652
-0.49382048947806056
-1.5484504395434109
0.10165043299276921
-0.01619439960933111
-0.1574387143183852
0.5584578378828677
-1.194211425594929
-0.6522719694747522
0.11912459482618987
-0.05405816059772617
-0.1290643914107162
-1.1041033673376006
0.20472007307021034
0.22146300751906667
-0.8788596411146202
-1.1843730611489005
0.24356176050892753
0.4081327968685331
-0.49255142043034594
0.5214739879521244
1.037510170872341
0.4020307220502491
-0.21457142446433008
0.47116085259891965
-0.5034372590210381
0.175576092890959
-1.501118034887067
0.10022886158957467
-0.47227630190814285
-1.5963772704607466
0.5784710180188629
-0.03998096938245859
1.0012891633260186
-0.46351599378572983
1.1276897959715364
0.2552201844821016
-0.9806695465110344
0.28535547909211967
-0.8396203970711972
-0.20519372424050145
0.3538917928961136
-0.2186498440127411
0.47671934667514737
1.3710758467656556
0.8394700678264198
-0.3855550244393746
0.5641058146685147
0.3537344832062818
1.0508848436717129
-1.1305033532332998
-0.1930177261646424
-0.12256711877573867
-1.0100411244578313
-0.07341707360269861
-0.5163308551819271
0.7915778335207702
0.0846852662839147
-0.11146848249035285
-1.4966079268184462
0.8892410063901519
-0.43182621496532725
-0.033769999765168285
0.7397696867813179
0.9386684649605914
-0.3569104015916905
0.11599272835512009
1.3028288235197973
1.2143784786801728
0.6821532399555077
-0.27948972337737654
-0.5725108364607445
-1.6816493863359483
-0.030204929594220664
-0.14338947752747078
0.46910182452270266
-0.019941868169048374
-1.4676122412378647
0.017161159000353365
-0.1825052734117023
-0.34890727172598757
0.31385125279024156
-1.538503133979439
0.10753783162633956
-0.5348682683621735
-0.23990299352901534
1.043262822194907
0.6731288061926679
-1.453188452591081
0.052358737241265496
0.09675292355964416
-0.2651929235681061
0.2867288150424125
1.0822408995073511
1.0678678612368746
-0.32603385649601513
-0.2852237899088954
0.5087544457992634
-1.7346108981001631
0.04352729334466432
-0.225430543710688
0.511954427128951
0.22446752633427036
-0.11911341316799197
-0.5010949749536187
-0.03843618367979229
-0.023601270418769138
-0.014103189433307572
0.56713859586094
-0.038577373931486525
-0.14081076294021136
0.2528002124229617
-0.5492963415342561
-0.04781060771210899
0.021028541332566486
0.14503774226948318
0.7152689138912072
-0.2497493547071723
-1.6649553728009847
0.016679123384702454
1.2683303975334532
0.885093882536925
-0.33416124488491006
0.9980920830252069
-0.1480451159364293
-0.2912613906096838
-0.9031062721431209
0.024630699401072348
0.829883083418075
-1.244904883370567
0.11184985728075858
-0.09621709539962109
-0.26796178956486416
0.018120927344192655
-0.3376513552874102
-0.12049189999219168
0.3764496792835895
-0.19957740038991334
0.5010820062776745
-0.26896451891353995
1.0308859199777656
0.06572368584514177
-0.13618316264846386
0.6290221702593323
-0.28463935092639797
-0.09283601018757148
0.2590654279419021
0.3890185405779268
-0.9227976699864346
0.25518722492844004
0.34535618806578494
-0.3766874858950392
0.12127245936197051
-0.845683835079198
-1.0203101291737273
-0.00011213189331071849
1.2900229034452688
1.01412288858695
0.3554823608244345
-0.364646229484916
0.9522727236119704
-0.3945391364696835
0.8474057781943368
1.3131557933906803
-1.377320992523388
0.9872121323373655
0.20396747075937272
-0.14316930937474648
-0.029047631744921976
-1.7139713336535418
0.6009181771745034
-0.13162173614253048
-0.7889290202350746
1.1573124773140753
0.5713053932744284
-0.24345744933011415
-1.3546224151439978
-0.015115035473305782
-0.18952321559060048
-0.12763844067790803
-0.8701783029211678
-0.07953493799057806
-0.6657553619639924
-0.11146062827559622
0.9054359407402353
-1.5199407448845546
-0.10673058534599689
0.09543067591581778
1.0018169613400214
0.41564882650177964
-0.7704464166627686
-0.21098093834943416
-0.30137892792865417
-0.09589974070437945
-1.0007052793334874
-0.07398693750887936
-0.27365600645106747
0.5961692713645572
1.1479913463009552
-0.3039534031985266
-1.2792264105812248
-0.103626206881662
0.06114604560836501
0.5565441550509221
-0.13761686491535086
-1.0015872487654813
0.8649557252223259
0.29496780991249083
0.05643967833818436
-0.14947388332392392
-0.19779749548360592
-1.0554015231739113
0.8959876691570221
-0.24222095336313088
0.8167677503021629
-0.18389937060677697
1.3032876504031594
1.3512023819102774
-0.017562417960582333
-0.6007478692628355
-0.20890792308824724
-0.5737556157237358
0.05676428830283606
-0.7137658669143153
0.33855161684682145
0.4845684667124726
-0.0017055209683672912
0.10877089272316648
0.848787197934558
0.9000119354194563
1.2530680836529406
-0.3261423958714791
0.16757939662885937
0.05274417160977135
0.0054175241561688625
-0.4307379063501983
0.0809952578728027
-0.2990678900208752
1.1700147157867016
0.6113738563154245
-1.2169488427967705
0.4041939513367916
0.019342549067173365
-0.08994813834115646
1.2061760087706936
0.4185310701847955
-0.3200468706201304
0.5236677579888523
-1.0399660809016493
-0.07019034543086522
-0.08115276529011473
-0.14111106646275468
-0.002974171462535341
0.5338780826539975
-0.5304563160786301
0.6178204387381132
0.33232366127686197
-0.609842116475771
0.38536308873747804
-0.6645361927693967
0.3668905232259736
0.303613257394577
-0.7291836781470304
-0.8269131890040617
0.0038139700790928432
-0.258430944826722
0.8923936865013965
0.9174900248372979
0.3753187899128008
-0.3649340027300472
-1.5908573488618025
0.10687692459152953
0.6675323886570417
-0.29413255272123984
0.038658175434988507
-1.7270927025501885
-0.1312177134692934
0.17986319273824802
0.5116013438161963
0.11814381030664156
0.49195438353173127
0.21673847228325094
-0.12220352670742053
-0.012996235336750206
0.14637243174012893
0.025127749541704825
-0.4648005677133161
-0.043357087975604225
-0.4097642573854329
-0.03464940519084647
-0.01611028008783466
-0.05019554898922596
0.9659930641933954
0.4533922538352595
-0.42815327863763264
-0.22231866515021387
-0.06798365339841966
-0.04434735257284583
-0.05948548144822663
-0.9981901833465919
1.0646573661097531
-0.03501905515293102
-0.26687676447827996
0.5390892993268656
0.005504693409381534
0.29128146846224495
-1.1021359807482882
-0.0812319623775413
0.17703113742505128
0.44406364495323725
0.3380596017816388
0.2765190927982323
0.14693440780749312
-0.9953167646518266
-0.018987902638285037
-0.9407188459951576
-0.011439181378216007
1.4666589794910725
1.4803985150440806
-0.6397559170001111
-0.6297842105509478
-0.27809967824947013
-0.541595306471749
0.05467037930205923
-0.16527915641749663
1.4337825079024302
1.2885297104321276
0.009375298942099208
0.2771863542822268
-0.3107079071759932
0.015375681014039078
-1.018097280530152
-0.31750329077624484
0.18084433270408973
0.1134826507991259
-0.054854350623559756
-1.4339545492432393
-0.5868726400480748
0.19803062151053963
0.47787200121561435
0.3370256332681891
-0.2566631086307944
-0.07828042474734231
0.14987489325892367
-0.07275922734415419
-0.33987061538146085
0.3269405451904254
0.11723866729981358
-0.03074129853455121
-0.28728502723141325
-0.1939794050161212
-0.026119249006174128
-0.40167539557819903
-0.05733906153325802
0.07583263882631952
0.2573619022045036
-0.20699591296258552
-0.09312071225567764
0.39997121684830567
0.1712667099486056
-0.37028633373080644
0.2743355785136916
0.1784148012035327
-1.2388546689188384
0.17113104564532888
-0.6996869348188905
-1.3678055578664812
0.40808302734058943
-0.8872118743225077
0.2565166022267633
0.22316718763594356
-0.8923659420436967
-0.3619277390855691
0.8496217213954411
0.3356272400947331
1.3502823728979632
-1.487956308290218
-0.04890478020522578
-0.12753534056835802
0.19604389089056623
-1.5281127302618969
-0.08353293848535992
-0.0014987262910436394
0.6197549474096439
-0.30633290842736616
0.7362854069876681
1.2690958086137039
-0.267497461994281
-0.2265535929328874
1.277838679453504
0.7555278033296564
-0.309248436934903
1.1291083806443025
0.48505658361748727
-0.22941653091093928
-0.8566695221144092
0.22779437993221327
-0.12108801268539882
-0.049714194605383996
-1.500132876898311
-0.2774142334602957
-0.13730985489644365
-0.06232117630696332
-1.1907035292540895
-1.1631965276087912
0.2581300246445427
0.43194915463970995
-0.5455757711584797
0.7924806458698108
0.16696949033947356
-0.1265426624478293
0.2638639778946029
-1.05628619752893
-0.13365181919206515
0.1729843798659375
0.6864667679612361
0.4438445975412315
0.983041253909013
-0.21972660640418368
-0.5643178939358402
-0.9332573809556859
-0.16123861157791003
0.802130951174459
0.26159529587885333
-0.7099986860521951
-0.08063451371421493
-0.5364802426827822
-0.08381532642677592
-0.6800231453327252
1.3152809891681927
0.003184974782916017
1.291294552378584
0.09684918851893642
-0.9756773227525626
0.2114915236683405
-0.9277973267896155
0.19868364945194672
0.37587197646261483
0.5501299639419868
0.007279748531850538
-0.22873662037032141
0.07908855272630133
0.9032571342768028
0.42190225006363336
0.30450853510567333
-0.2402818078209725
0.9264550831360611
0.3292452631111382
0.3315652033254501
0.04980217190566094
-0.865373044840518
-0.08364837959343036
-0.7220546576753147
-0.06323404719192938
-0.053698692912303114
-0.16776120135728123
0.37792847869007185
-0.4233117891395112
0.4813815570681526
-0.3129448200979416
0.0949059468320424
0.10955762124464752
0.012207927475336722
0.15386539339036243
0.23918754609928194
-0.6819711299342245
0.11376584073813134
-1.2064625453898707
-0.12021685785253644
1.4407710246934953
1.4701428881233585
-0.19188945207136687
-0.7152895450082591
0.00590502696275419
-0.20796066087410808
0.07667408435365092
-0.6256821609673542
0.2719712950613261
0.43664684550909394
-1.126017642267571
1.1215131154345128
1.1434846323529981
-0.3461029680873149
0.5957295690140348
0.6585073228994563
-0.2267019001655337
0.013292028687566404
-1.7474912762934744
-1.2404504294764434
0.024258843469566416
-0.14502160865567376
-0.21276077588123787
-1.501829069562024
0.030543713568758513
0.8875887110152151
-0.07835899329236906
-0.07174774571716547
0.11813823487637748
-1.2686772285866128
-0.0686456712302356
0.6622031714087062
-0.32902696506746065
1.2524732237543064
0.24967770601900097
1.1810070580039844
0.6305089735818673
-0.28813950461932525
-0.19804568175945392
-0.07154834578468147
0.21026628482099935
-0.05835306568910947
-1.303475812819395
-0.29671714030248886
0.378992059069015
0.4716403060445544
-0.4570159352873626