<VTKFile type="UnstructuredGrid" version="1.0" byte_order="LittleEndian" header_type="UInt64">
<UnstructuredGrid>
<Piece NumberOfPoints="955" NumberOfCells="1769">
<Points>
<DataArray NumberOfComponents="3" type="Float64">
-1.0 0.0 0.0
0.0 0.5 0.0
1.0 0.0 0.0
0.0 -0.5 0.0
-0.1875 0.0625 0.0
0.25 0.0625 0.0
0.25 -0.0625 0.0
-0.25 -0.0625 0.0
-0.5 0.0 0.0
0.3125 0.0 0.0
-0.0625 0.0625 0.0
0.1875 0.0625 0.0
-0.995353391828 0.04814463983 0.0
-0.98192933321 0.0946239723616 0.0
-0.961007140926 0.138261776251 0.0
-0.934101535358 0.178503726601 0.0
-0.90258278424 0.215258169179 0.0
-0.867542017508 0.248681949415 0.0
-0.829800200501 0.279030297301 0.0
-0.789963581897 0.306576882395 0.0
-0.748479952549 0.331578708843 0.0
-0.705683599656 0.354263552026 0.0
-0.661827744006 0.374827972964 0.0
-0.617107315847 0.393439500028 0.0
-0.571674933639 0.410240103552 0.0
-0.5256521147 0.425349813187 0.0
-0.479137173887 0.438870017374 0.0
-0.432210961164 0.450886262002 0.0
-0.384940978545 0.461470595769 0.0
-0.337384511344 0.470683463568 0.0
-0.289590931504 0.478575253328 0.0
-0.241603502111 0.485187527603 0.0
-0.193460758078 0.490554006987 0.0
-0.145197644411 0.494701335165 0.0
-0.0968464347556 0.497649667958 0.0
-0.0484375007425 0.499413107688 0.0
0.0484375007423 0.499413107688 0.0
0.0968464347552 0.497649667958 0.0
0.14519764441 0.494701335165 0.0
0.193460758077 0.490554006987 0.0
0.24160350211 0.485187527603 0.0
0.289590931503 0.478575253328 0.0
0.337384511342 0.470683463568 0.0
0.384940978544 0.461470595769 0.0
0.432210961163 0.450886262003 0.0
0.479137173885 0.438870017375 0.0
0.525652114698 0.425349813187 0.0
0.571674933637 0.410240103553 0.0
0.617107315844 0.393439500029 0.0
0.661827744003 0.374827972965 0.0
0.705683599653 0.354263552028 0.0
0.748479952547 0.331578708844 0.0
0.789963581894 0.306576882397 0.0
0.829800200499 0.279030297303 0.0
0.867542017507 0.248681949416 0.0
0.902582784239 0.21525816918 0.0
0.934101535357 0.178503726602 0.0
0.961007140926 0.138261776252 0.0
0.98192933321 0.0946239723621 0.0
0.995353391827 0.0481446398303 0.0
0.995353391828 -0.04814463983 0.0
0.98192933321 -0.0946239723616 0.0
0.961007140926 -0.138261776251 0.0
0.934101535358 -0.178503726601 0.0
0.90258278424 -0.215258169179 0.0
0.867542017508 -0.248681949414 0.0
0.829800200501 -0.279030297301 0.0
0.789963581897 -0.306576882395 0.0
0.748479952549 -0.331578708843 0.0
0.705683599656 -0.354263552026 0.0
0.661827744006 -0.374827972964 0.0
0.617107315847 -0.393439500028 0.0
0.571674933639 -0.410240103552 0.0
0.5256521147 -0.425349813187 0.0
0.479137173887 -0.438870017374 0.0
0.432210961164 -0.450886262002 0.0
0.384940978545 -0.461470595769 0.0
0.337384511344 -0.470683463568 0.0
0.289590931504 -0.478575253328 0.0
0.241603502111 -0.485187527603 0.0
0.193460758078 -0.490554006987 0.0
0.145197644411 -0.494701335165 0.0
0.0968464347556 -0.497649667958 0.0
0.0484375007425 -0.499413107688 0.0
-0.0484375007423 -0.499413107688 0.0
-0.0968464347552 -0.497649667958 0.0
-0.14519764441 -0.494701335165 0.0
-0.193460758077 -0.490554006987 0.0
-0.241603502111 -0.485187527603 0.0
-0.289590931503 -0.478575253328 0.0
-0.337384511342 -0.470683463568 0.0
-0.384940978544 -0.461470595769 0.0
-0.432210961163 -0.450886262003 0.0
-0.479137173885 -0.438870017375 0.0
-0.525652114698 -0.425349813187 0.0
-0.571674933637 -0.410240103553 0.0
-0.617107315844 -0.393439500029 0.0
-0.661827744003 -0.374827972965 0.0
-0.705683599653 -0.354263552028 0.0
-0.748479952547 -0.331578708844 0.0
-0.789963581894 -0.306576882397 0.0
-0.829800200499 -0.279030297303 0.0
-0.867542017507 -0.248681949416 0.0
-0.902582784239 -0.21525816918 0.0
-0.934101535357 -0.178503726602 0.0
-0.961007140926 -0.138261776252 0.0
-0.98192933321 -0.0946239723621 0.0
-0.995353391827 -0.0481446398303 0.0
-0.0125000000001 0.0625 0.0
0.0374999999997 0.0625 0.0
0.0874999999997 0.0625 0.0
0.1375 0.0625 0.0
0.2 -0.0625 0.0
0.15 -0.0625 0.0
0.1 -0.0625 0.0
0.0500000000006 -0.0625 0.0
6.88060719511e-13 -0.0625 0.0
-0.0499999999994 -0.0625 0.0
-0.0999999999996 -0.0625 0.0
-0.15 -0.0625 0.0
-0.2 -0.0625 0.0
0.294194173824 0.0441941738243 0.0
0.294194173824 -0.0441941738241 0.0
-0.294664144328 -0.0614944683546 0.0
-0.33923035969 -0.0583834003108 0.0
-0.383556610555 -0.0528338384567 0.0
-0.427348967553 -0.0440506411048 0.0
-0.46964695888 -0.0298487996564 0.0
-0.467852978921 0.031664996 0.0
-0.422973176437 0.0466049212232 0.0
-0.376499157155 0.0556764242381 0.0
-0.329462988146 0.0612021968641 0.0
-0.282184266361 0.0640125888654 0.0
-0.234823209552 0.0644306681799 0.0
0.205569812883 0.105463743225 0.0
0.24001092274 0.132564972333 0.0
0.264521025753 0.106786290959 0.0
-0.172489593675 0.101007123659 0.0
-0.145401163189 0.129953954923 0.0
-0.104598836811 0.129953954923 0.0
-0.0775104063253 0.101007123659 0.0
0.642023303636 0.00227545696507 0.0
0.493455401629 0.184287194174 0.0
-0.748585105046 0.00189960068394 0.0
0.490284243826 -0.183743262078 0.0
0.099494291536 0.292136080466 0.0
-0.626671628194 -0.157405907465 0.0
-0.295312455861 0.270108627883 0.0
-0.627258613808 0.150772233678 0.0
-0.280424446059 -0.271502975697 0.0
-0.0574375049217 -0.28049323366 0.0
0.239359502732 -0.282063623383 0.0
0.339988154835 0.284894715898 0.0
-0.122560073367 0.301491151192 0.0
-0.448551499889 -0.216830781098 0.0
-0.483203073921 0.252313655541 0.0
0.660719626302 0.179799400301 0.0
0.823317718952 -0.00391092567611 0.0
0.665449815862 -0.182640156828 0.0
0.477529361505 0.0176379955366 0.0
0.0893773569253 -0.337374518062 0.0
0.38629068654 -0.305616190223 0.0
-0.771589661691 -0.141078917649 0.0
-0.769477701488 0.144480529325 0.0
0.370849706125 0.166775755579 0.0
0.215991834634 0.257302665429 0.0
-0.000275371378132 0.203527986725 0.0
-0.626077437575 -0.0310987633041 0.0
0.466422073731 0.310497950032 0.0
0.35219748298 -0.175395596114 0.0
0.79791697807 0.128664076419 0.0
0.117937402009 -0.195417145442 0.0
-0.173415173644 -0.359378060687 0.0
-0.010034425951 0.368557964504 0.0
-0.166578175767 -0.193172474915 0.0
0.794314617823 -0.137356329587 0.0
0.587020338568 0.267034461852 0.0
-0.58032586357 -0.276272573779 0.0
-0.387505282427 -0.331157280254 0.0
-0.863113151856 -0.059567809534 0.0
0.578728162327 -0.271773882544 0.0
0.256732495762 0.366628077006 0.0
-0.375743192742 0.179096912455 0.0
-0.859363753151 0.0632651613854 0.0
0.575494899766 0.0976700487933 0.0
-0.224301593145 0.364573614656 0.0
-0.34790635987 -0.175823022857 0.0
-0.585938599215 0.274687284906 0.0
-0.508509608278 0.1420215465 0.0
0.565754543248 -0.0777715089147 0.0
-0.517904532258 -0.131598454089 0.0
-0.390168893172 0.337163542359 0.0
-0.200351933728 0.220661918488 0.0
0.122304174991 0.164112992882 0.0
0.000537014499976 -0.181933035435 0.0
0.424241927903 -0.0874914572041 0.0
-0.0123205212246 -0.384195555138 0.0
-0.581060864879 0.0648460876286 0.0
0.144829674854 0.382952008549 0.0
-0.699059607759 -0.230711759425 0.0
0.192196261256 -0.380139886016 0.0
-0.705380213093 0.226850403185 0.0
0.287375718908 0.210279723877 0.0
0.303494280842 -0.367706763433 0.0
0.392182460712 0.0681766765475 0.0
-0.691111920248 0.0789735933168 0.0
-0.289653543399 -0.374414723334 0.0
0.225120202136 -0.166297762541 0.0
-0.272468732643 0.160483648438 0.0
0.492356222399 -0.325238929598 0.0
-0.0941012542374 0.212000742643 0.0
-0.488791638864 -0.334029137843 0.0
0.734382639279 -0.053475157784 0.0
0.70882118845 0.0792506022443 0.0
-0.0999623140016 0.392148831804 0.0
0.884799515227 0.0807995436102 0.0
0.390634560431 0.369963938552 0.0
-0.252785338473 -0.159048598683 0.0
-0.699488032106 -0.0747220232619 0.0
0.746105185545 0.224850913967 0.0
0.41925485716 0.236492576781 0.0
0.881954207438 -0.0853692934023 0.0
-0.425081544799 -0.134372323407 0.0
0.736929931499 -0.221811797395 0.0
-0.0296248904523 0.276146245177 0.0
0.67416064015 0.274103975315 0.0
-0.52196910972 0.333098720243 0.0
-0.316653823013 0.389526196126 0.0
0.0276866481326 -0.270325650794 0.0
0.6695195133 -0.278607092619 0.0
0.576478657986 0.182770681753 0.0
0.467111289622 0.0992838220503 0.0
0.586627636797 -0.160060254201 0.0
0.645056919671 -0.0924670013011 0.0
-0.0822813249502 -0.146504905215 0.0
-0.0960642675064 -0.411606814563 0.0
0.0623822468404 0.412404681424 0.0
-0.549561045366 -0.0673034456825 0.0
-0.853683367674 -0.143801145461 0.0
0.913227108533 -0.00433275711682 0.0
0.320464854144 -0.242249881144 0.0
0.563551278048 0.0121741620023 0.0
-0.855142165863 0.154568827124 0.0
-0.193304505649 -0.275134422844 0.0
-0.377051508469 -0.252425007366 0.0
0.151259874089 -0.280524581463 0.0
0.197363455216 0.185388938444 0.0
0.393329303334 -0.0138170551847 0.0
-0.917437373743 0.00284271010915 0.0
0.415875386082 -0.218105550001 0.0
0.334390871374 0.107430465151 0.0
0.0678595997335 -0.41728051865 0.0
-0.392411452243 0.258644966796 0.0
-0.655615774934 -0.288946242178 0.0
-0.562163212525 -0.200896334486 0.0
-0.558995331995 0.203478058792 0.0
0.539584678963 0.332357947138 0.0
-0.78726378847 -0.0709012385364 0.0
0.383963975041 -0.383394771023 0.0
-0.78714021495 0.0711853796783 0.0
-0.198639028281 0.298256923068 0.0
-0.441287681818 0.121564221887 0.0
-0.780840296768 -0.223203853896 0.0
-0.202469719084 0.156068056894 0.0
-0.781310889272 0.219311564868 0.0
0.355173250286 -0.0865284013303 0.0
0.0414550743898 0.135145583788 0.0
0.512695694691 0.253972819747 0.0
0.194483027171 0.327571841352 0.0
0.0637323686403 -0.138094780213 0.0
0.750843001157 0.0187166659786 0.0
-0.229742158448 -0.408390330337 0.0
0.323226380143 0.401986279096 0.0
-0.697060461469 -0.150989331478 0.0
0.26975826871 0.299177488477 0.0
-0.177696997496 0.42033752651 0.0
-0.823021896338 0.00271279078997 0.0
-0.695653494565 0.149209414131 0.0
0.296198235216 -0.127812034314 0.0
-0.0481852532687 0.16037467344 0.0
-0.661475947342 0.295820428999 0.0
0.144220778076 0.244905915995 0.0
0.868682767735 0.14468331396 0.0
0.511258430251 -0.254199132713 0.0
-0.456562519365 0.370320613814 0.0
0.208110997667 0.41991884338 0.0
0.151898315235 -0.132346682184 0.0
0.721976376011 -0.127771413078 0.0
-0.625825196933 -0.227849663347 0.0
[...]
<PointData Scalars="solution">
<DataArray type="Float64" Name="Real part" format="ascii">
-0.6989600346295298
1.1314292374353654
-0.547412867988586
1.1731906366193283
0.0
0.0
0.0
0.0
0.0
0.0
0.0
0.0
-0.6658750948677048
-0.5715284033513244
-0.41640476219770767
-0.20460695480218577
0.04277533122128016
0.2925160194960985
0.5181784079944236
0.6703971263793101
0.719785758627469
0.6461189915066518
0.44496480924525017
0.13527396588995333
-0.2430646856103122
-0.6423648744740185
-0.9992825146929653
-1.2593106799296054
-1.3716041938539714
-1.3206877421956942
-1.1029588777568198
-0.7441940916118635
-0.2967308581292769
0.1809825497718323
0.6165976950408365
0.9498348429513063
1.1503860942745365
0.9969701960983557
0.715673134943922
0.3446575420940719
-0.05408415647420811
-0.3994376197965819
-0.6646251350962542
-0.7969161623575338
-0.7924150848158906
-0.6568320615725884
-0.4251299239921224
-0.14211244574686016
0.13813357615740096
0.38022361825145234
0.5396091766754716
0.5984024058164177
0.557325295049212
0.43202751240876214
0.25158801436986156
0.042930674112250156
-0.1576802655485954
-0.3275480364923481
-0.4501269779938698
-0.5245440718174632
-0.5236542731603135
-0.4504796673879112
-0.3274323613466777
-0.1577767901555138
0.0423062453829644
0.24966874957999502
0.42739699317664204
0.5513178627205748
0.5901896874866542
0.5263708534247564
0.356666135836408
0.12049207221128994
-0.1659666744049514
-0.4538191084935579
-0.6880915741984773
-0.8231653266496075
-0.828944434749439
-0.6880928765069634
-0.42473808162600657
-0.05967080324087631
0.3373679519646616
0.7211566408294883
1.0136045841434447
1.1747841406738362
0.9962086991370502
0.6674576965522077
0.23463123930084973
-0.24299620440806136
-0.693919638604792
-1.0581302814186353
-1.2831918298735947
-1.3440439328214413
-1.234791416692743
-0.9861402041365509
-0.6349260287983258
-0.24246933178042143
0.13252358167118816
0.43632290618133307
0.6322363459768048
0.7105758299981982
0.6582180895427474
0.5076067527292706
0.2861387254999623
0.03441415269366671
-0.21131348424894275
-0.4198565776118644
-0.574718788502232
-0.6674987630728525
0.0
0.0
0.0
-9.43689570931383e-16
0.0
-4.440892098500626e-16
0.0
0.0
0.0
8.881784197001252e-16
0.0
0.0
-9.71445146547012e-17
-1.4432899320127035e-15
-4.440892098500626e-16
0.0
0.0
1.1102230246251565e-16
0.0
0.0
0.0
0.0
0.0
5.551115123125783e-16
0.0
0.0
0.0
0.0
0.0
0.0
0.0
0.0
0.0
0.09965879503019837
-0.11907232746785179
1.0238069154138076
-0.141752143153762
0.506409399660187
0.710448986944527
-1.0852013834545027
0.7124833739581048
-0.9973742762159797
0.23336843595073586
0.11867433271050404
-0.25729759461984325
-0.18169815865628136
-0.5744985671066385
-0.5727122670513296
0.21744047141930878
-0.09031086160538637
0.20957971518115714
-0.05644789679010209
0.7064473672310263
-0.38479799842094453
0.8601690850211726
0.8615586172489311
-0.15515113666840397
0.1489357964005741
0.22379692606470325
0.8989950948275472
-0.3613509864780763
-0.14055559763262648
0.110527304989402
0.3183554279912236
-0.4099518195200247
0.6247627725165543
-0.3411499629352824
0.12031551319307365
0.06002877326806616
0.08207713262184861
-1.2441336156634555
0.3647119190779514
0.0016446642603117068
-0.02376688352431433
-0.6689009087405693
0.39390880208818324
0.05034266169120786
-0.8703612235401572
-0.6553638835906457
0.10300097810171338
0.030070599434436684
0.0251337573126746
0.14505875443122318
-1.3112768542685065
-0.5554042577703417
0.1933362358326881
0.22208022287963758
-0.10943823039101619
0.7514956754416013
0.6288295920869145
0.5794811364198127
0.7852103184951722
0.37518005093812007
0.7976871575557
-0.0632591647019286
-0.2594312718159666
-0.088071064696984
1.029974971198894
-1.181588820825666
0.09368384574215288
-0.5393684890112597
-0.3621517190939035
-0.05425355947754251
-0.7754050310946623
0.08746147388464254
0.1360356364082136
0.18364278863897043
-0.20248044003514487
-0.5383160499443889
-0.49599113255046995
1.047613530780679
0.3664861057406015
-0.26081489988521156
-0.19482985031806127
-0.29550871414471924
0.3394667911748611
0.27513651503489434
0.34839719437696937
-0.5604747170520137
-1.3539596467467485
0.496437288023063
0.31735848097209574
0.05142159377806317
-0.08850005469040745
0.051854126875182455
0.1164636415021022
-0.02056912418045298
0.3583213071096285
0.8775624321154042
0.44898480141836383
0.4074237852647259
-0.3474568330914064
-0.13988558158595332
0.030728540138444414
0.39564824216717515
-0.5905855300627996
-0.9910279232961016
0.44007717975733246
0.12396362291192381
-0.07049964417738575
-0.07785176816955774
-0.24483404134927433
-0.08018500320034039
0.9455679304747464
-1.0339134364070066
0.5224688989039018
0.20392562001129053
0.14449587632163852
-0.18410281033954007
0.852659159697146
-0.5814862856753966
0.8519942467383809
-0.6974327289684913
-0.21124268810770386
0.7397213765548158
-0.3235675006489973
0.7452266012021965
-0.08359281503698868
0.1361656746532789
-0.16046276256346922
0.2893344003127335
0.18086592074625862
0.06476234105323764
-0.7799711496566963
-0.42218506122402466
0.9354942572401891
-0.0442458309463849
-0.38957221130852016
0.6649107119103862
0.9271315661130509
-0.03908259950791926
0.07019365519315346
0.5299934604017305
0.327908845362266
-0.03366697276675967
-0.18946265106009272
-1.1002376356170698
0.24870362660070028
0.1443849120461151
0.1805946762782743
0.51680896968028
1.0702048449747399
-0.15221396883763982
-0.23400820779243914
0.7918783452985013
-0.1951779806491002
-1.1685791746740377
-1.3666517641574307
-0.12286065377842786
0.07781893199035828
-0.4378927605693533
0.5545750685241425
-0.8992439838665915
0.6941428880793503
-0.003027005036410957
-0.26646606294464087
0.7154524090570957
0.1455443097479161
-0.17195981309892172
-0.38624563645449905
0.2374959597648149
0.241039312287461
0.6751175382177146
0.3378730805154163
-0.2499031162122929
-0.06417727231850312
-0.052928639763303975
-0.06254690128276075
0.21690353425894826
-0.5492535737490473
-0.16268779632192754
0.568761742174902
-0.034861552202933965
-0.4085717761646265
0.2209731480581294
-0.42952752275322886
-0.39020006851943906
-0.9061833317066472
-0.6557940830782065
-0.4037981746986679
0.2563609263149901
0.008698681710380463
-0.5899638626884564
-1.2166373203409853
0.20869124471908035
-0.07576055562556389
0.009523334245824078
0.4462256366830101
-0.2998337665802745
0.23996785729977077
-0.8726286788520987
0.11344615088252874
-0.137130989087089
-0.0195351672032677
-0.7996843780123357
-0.17858935569492884
0.20530860908476872
-0.04079363060026919
-0.03671055691323638
-1.180190649197074
-1.0880622663288233
0.6894257225781335
-0.33144672241996637
-0.2819775357951705
0.07708605374935168
0.13088482482129832
-0.796991278087585
0.18090973861098908
-0.12449418111580665
-0.3421609597863614
0.02691310711482675
-0.1502827305551898
0.9042652384437811
-0.6052467371768566
-1.4175199840913781
0.43571596089393216
0.06838430448080368
-0.9956453227901572
0.09651709871795083
0.8024857169953782
-0.15652209437130982
-0.18913530020380398
-0.26849213297579166
-1.3023461643775955
0.05978472082583647
0.1005939283018385
0.7726365822379959
0.7733414748353928
0.4967118267690889
0.40856899947779796
0.3628164278617234
0.4888359862231535
-0.29275583218122664
-0.1856777737589555
1.0022773035067012
1.0115750779704524
-0.3967424928611303
0.5053430328077928
0.01566681189022001
0.5379214038210023
0.5320827668546066
0.09587475605243723
0.0483971159847294
-0.3711003289586678
-0.12550426572798967
0.7088920476698363
0.9661691065267591
0.08033926517520851
0.4674210928201028
0.15419307562367662
-0.038894840276171384
0.44801736202869574
-0.21552778747610324
0.9247092994890034
0.7485658394400132
0.5487449358560508
-0.10575068019519346
-0.11096228243053463
0.09016999794206804
-0.5013332674482536
0.10222100276968893
0.24751341845723965
0.18262204620615186
0.8763429856804781
0.876807355991005
-0.911960400369013
-0.25007863054202956
-0.0802522486234799
0.7732693402057984
0.3127605932258426
-0.05813745240822976
-0.28916709980740557
-1.2233218073826406
1.056969384397655
0.04504793866740314
-0.9865598548860995
0.30293456009662717
0.004333470746932355
-0.1935678677241931
0.6941089030812827
0.5439234398067052
0.6905343725448682
0.06464415445681693
-0.20014323018472835
-0.01880571967236011
0.2905766782737734
-0.26952230644048014
-0.8687440365444208
-0.06810721574158496
-0.39225344326199907
-0.09658925640879301
-0.04913437411374466
-0.12243148801410486
-0.3978050596279971
0.16176205682492195
0.7502758924812286
-0.18849166777428605
0.11687390720478552
-0.05504955600698366
-0.1746734177644167
-0.21136260459114992
-0.20527364210723598
-0.234693492325573
0.1354050377585614
1.0406146469047073
-0.06313643734044816
-0.4387154495589916
-0.3184188416243713
0.11888382641374629
-0.002632735812030801
0.0066016616442372555
-0.6197296665388334
0.23076529134692758
0.28666201918690526
1.0170591695011653
0.07844899719295007
0.1650996364720107
0.10654366127235976
0.12112145457937573
-0.3610347890226119
0.029045052872037402
0.30884080247045653
0.7975810274243901
0.9757867427481978
-0.24151207487213094
-0.7574435272475643
0.4724467435694442
0.7190216648432594
-0.12245200719257665
-1.1273608093937093
0.334957333993552
0.02213927507280855
-0.04111980926433256
0.4307148307184303
0.7760459076162194
0.39242545051803035
0.2650507415603086
0.3426274942471743
-0.05695245114051106
-0.17253728620352662
0.854097339399774
-0.27133691985828123
0.06698757277500811
-0.6768934230171096
-0.8482366231249154
0.126667880166696
0.457673751726994
-0.02127868188141424
-0.014555138995542422
-0.46271784075708633
0.28449696181763906
0.5038514074310398
0.23283812371092338
0.2602206059971186
-1.2992785731732357
0.17367705527964494
-0.6511429087032461
-0.23521854101859466
-1.2571379145900694
-0.24111635091605887
-1.3326371954886738
-0.028366756619353062
-0.0544611889358293
-0.4752904310760829
0.13220495612776922
-0.30635440387097723
-0.09210757381232426
0.38473695120633805
0.10798847504142672
-0.09661609201380672
0.18954712010829544
0.6681514838427414
0.2358780770610503
-0.6933252113963757
0.3924612704016997
-0.0016213582546608096
0.14187891964736726
-0.9346520194698507
0.6802121403237389
-1.0673462538340257
-0.3556810192015272
-0.08377753199527298
-0.11908933573686686
0.5797825057028523
0.21514296550564144
-0.10681287824530339
-0.21993138619155433
-0.3557214476954569
-0.10481153400296439
0.6773672229824611
-0.44542742418252645
-1.1800823560185243
0.8776759505233211
0.6882574337604972
-0.9492806834117298
-0.5923332004469098
0.8995493747356214
0.23476936574347496
-0.08361188274512821
0.15287743458523795
0.5922499953264289
0.9836224991820318
-0.43692703352270934
0.06916537088449448
0.3543778388998424
0.6355329096629216
0.03912673093256643
0.45175049529988565
-1.3927448840299237
-1.1434242736424158
-0.42454001140832764
0.308547865218042
-0.47773651423701324
-0.41162845219694916
-0.182570151113025
-0.04573185224930221
0.30318169816165647
-0.02935802436334123
0.029047492683999532
-0.7733278778079384
0.6772765175458875
0.34243339472493983
0.822197961819598
-0.261135849873962
-0.5056123010796267
0.8682312598823495
-1.31737581994198
-0.6057742023026753
0.13769308670971786
-0.046128108813117435
0.48142792678164603
-0.16438132749819512
-0.10627135742536553
-0.35683632706101837
-0.12804241675895311
0.05333034231404564
0.2115972796421733
0.9543052770788443
0.1346826768804068
0.12994389867432787
0.2328849441351899
-1.0898636521193483
-0.458570621367942
0.1095329148202987
0.1349505459056966
0.1339337160848611
0.6577731389614737
-0.696273005604448
-0.9112850761966008
0.3334601753824278
-0.2148165766822678
-0.20743206561684574
-0.8616078312202331
-0.0862046055380255
-0.603959257792834
-0.026738394838217605
0.36882476120056124
-0.19512119594371413
0.10249128775785854
-0.09253761224639645
-0.6367837345804483
-0.8640571688705312
0.923634714092685
0.3672131001222508
-0.8368074615243363
0.7020717361060427
-0.013896589784905045
-0.2077698655827223
0.5734891000568076
0.25077313407641877
-0.5132947889893288
-1.214366725657556
0.26331789154690016
0.2268059633696674
0.01590830476122984
0.10304033586925687
0.03617256650074059
-0.5909340640022376
-0.4341405317419278
-0.4669088364734699
-0.19152152731485084
0.09861297569074912
-0.015009535178075961
-0.009289151471399804
-0.8999464649760112
-0.17305286156210647
0.6349801149760967
0.3810435346051328
-0.20644489092949414
-0.4604572193242822
0.5896722333736731
0.0069510678284365746
0.49833100881925024
0.0709391449357201
0.28445215020294407
1.079476054687035
0.06320294104124774
0.1485183256822268
-0.4468277441852812
0.4257797410226291
0.524099711235863
0.19033788670193733
-0.024979719157452895
0.06508352690027201
-0.3450718376335177
0.2329676748608071
-0.316964368792216
-0.3831405966351453
0.12834092504920272
0.13944717382287697
0.4518745632661033
0.6494739974980006
1.0687948665564395
-0.09618313017998509
0.038705947390539786
-0.12137493131119947
-0.701428115318391
0.3421707680113598
0.5782778758544483
0.10341212884728579
0.6097484545406968
-0.33769542807771075
-0.559678048386713
-1.3033163335204891
-0.07860491211679
-0.2132012380039014
0.029051286861779824
0.8010730993939632
-0.1690079834202067
-0.04931872872455234
-0.08649801939345647
0.39534024139817836
0.9423279008850269
-0.36008176331471864
-0.13982974644104296
0.2373324182158818
-0.2166727504336029
0.5829846579831315
0.33281228479196306
-0.6615734213875365
-0.06013296422045822
-1.4014573172534894
0.28836204065166804
-0.2321513850044108
-0.5910945124066638
-0.31251185743474436
0.07224135796774867
0.39121076236359326
-0.40215257727274767
0.10668282928465012
-0.24324110988616943
-0.2490691800547973
-0.08508387544287577
-0.14403971977513808
-0.10099824446949879
0.9389592244363618
-0.680220755971054
0.44493382714605845
0.11705446354967819
0.08448954429636657
-0.18923187855063217
0.9989413865787009
0.09906106045221286
0.2683934225788197
-0.1155534721543563
-0.46642253692341723
-0.012456799223571235
-0.23078222319819203
0.631599967867944
-0.8981607613316599
0.7966905035190924
0.5543898423397062
0.076692106109372
0.891352576988336
0.1688819900684182
-0.982994545560119
0.02564991806887318
0.017603686063670965
-0.4312725168443574
-0.11886223788307285
-0.1305357137723961
0.022099467807239204
0.016888068070726625
0.03560416699048208
0.2243316594140815
0.7731113950944536
-1.080593869708358
-0.4574104182578381
-0.07262057531892585
-0.29754529366047106
0.8162618127348937
0.10445932245543876
0.8016601766569563
-1.3592226309797204
0.5309750133389182
0.08932135390381843
-0.8142299284775543
0.47512076244813395
-0.03908980268759843
-0.036007419705740173
0.28467712651898697
-0.05124290873322862
0.9559556722744212
0.45592356159677955
1.0225441865566756
0.048004281198734566
-0.6170349663087142
-0.1110210998540446
-0.2630862915708587
0.11863303513592971
0.9872641759316735
-0.1425079423228614
-0.21480559659071174
0.05426750194972857
-0.3949896925882188
-0.15235202027126982
0.8540754731290412
-0.037379381650255394
-1.1740792060436587
-0.6699795669340884
-0.005295683063933243
0.22381706516951888
0.1642190781359335
-0.7554976322601534
-0.5045855274802721
-0.14067088149530982
0.7221708123087824
-0.8427720313043082
-0.19879577460798725
0.44405131963225175
0.5898181317889956
-1.3198834183253356
0.6448452074165267
-0.4870362206958795
0.3178165162320209
-0.15662063425299944
0.8580909088376498
0.03526081475733453
0.4873549757035922
1.0513060604276758
0.6575785037119648
0.8320017534251063
0.3286128376092271
0.11012985824973112
-0.05321257960913034
-1.1569325395646832
0.9473243988198495
0.13992832013636258
0.2583852719892331
-0.7393783021437782
0.6661639090114699
-0.13541271745660627
0.08107727699832096
-0.5510658541247759
-1.1112091378369067
-0.08503363795061845
0.7461524911697165
0.6119931095397837
-0.5703553696085945
0.4421313029730988
0.8230750070731707
-0.3959658238871705
-1.0899298137194315
0.6611583908036656
0.6602116160715267
-0.085302209778784
0.6425847782784915
-0.08039919891309977
-0.7066477045704476
-0.18985641130788097
-1.1190590182147135
0.3037152076224272
0.14012454600725666
0.07851148152401854
-0.13697717530179754
1.081333411106332
-0.0006915718587691133
0.9944778231040599
0.1714654580723437
-0.46929533164021464
-0.38667353186633796
-0.12464132137025985
0.1505531962060518
-0.2041867042784693
-0.08851981385877616
-0.2876817486826249
-1.3069828823244842
-0.11133218948023704
-0.09722144871557678
-0.128502497847927
-0.43528428333173075
-0.14860790313958527
-1.3398777686282306
-0.1847891399049414
0.1692495477883571
-0.43871586122065753
0.3287974522695658
-0.11989101913649935
-0.9410170234323502
0.05343386800958638
0.706751037816972
0.13240519985429056
0.6220968151523645
0.22623005072438485
-0.07919774067641003
-0.7997440306689236
-0.6661907458487031
0.40347324951109054
-0.3810537872513644
-0.00011117510738645198
-1.380832651845891
0.2351174845287815
-0.12103630691994949
0.24322065546862062
0.03981767315255935
-0.9869681012242902
0.6807997603808155
-0.3335239235298558
-0.3975586545531301
-0.6863080671672528
-0.2888546608026697
0.9799343016457784
-0.06733755540550551
-0.06799269393879348
0.46869793357750367
-0.3312737022380162
0.2600403069460445
-0.29962143974619737
0.13920525251023452
-1.0690715269061932
-0.07187638901147692
0.06125115193802977
0.46031520051323105
0.05521478030161553
-0.13703575659281897
-0.1415952481724274
-0.3683429338795034
0.7982091514866116
-0.6072269911044512
-0.9845079526967027
-0.26320499185086826
-0.061876902469411604
-0.2645601568865245
-1.138053438332339
-0.405542211646999
0.26299022989985554
0.17312925913359922
0.20958300467800206
0.5076136973628879
0.16274139119853082
0.07221280845826544
0.3004779420577477
0.4468948247409117
-0.09248613416348883
0.06018767754746096
0.46490031665614845
-0.05165855606059022
0.08790610860628567
-1.093386370854686
0.13582495991607146
0.7793980406580111
0.0504481011193289
0.03831627604686452
0.2780475530607126
-0.03549681951325112
-0.05485859799897064
0.38862505288334726
-0.44707551333868834
-0.18407883580898926
0.2484682090729542
0.8667381297187471
0.4051270108089867
-1.2199274890153027
0.2184103994197618
-0.2603464354267381
-0.1313506831306427
0.023238782637792055
-0.12268278258662046
-0.11399028204802297
-0.7087728411755438
0.28723985451422884
0.06499925246413785
0.8631494879560555
0.1763898337508143
0.7965741726051563
0.09638471165393298
0.7327899682130693
0.14758723188822498
0.4706166455682642
-0.1505352815954541
0.5729672633026658
-0.15752577617043562
-1.2422139126378766
0.8132357547416805
0.3641531787548403
-0.4509188132618721
-0.38074657261759093
-0.00029757290400334035
-0.4601591931716593
0.43784793160741936
-0.797543619618293
-0.062080233084382486
1.1184327332888304
0.278299272337972
-0.02483385510642222
0.03300042740485043
-0.049008000902377
</DataArray>
<DataArray type="Float64" Name="Imag part" format="ascii">
0.9711436055747735
0.3128064723462432
-0.3537186708963199
0.2739608527356723
0.0
0.0
0.0
0.0
0.0
0.0
0.0
0.0
0.9859081971769531
1.0248419508042794
1.0623686379591295
1.0643393794244453
1.003751694692343
0.8606843892662259
0.6276123930916964
0.3189919478772481
-0.03623783152321022
-0.3954220144846331
-0.7084658917682707
-0.928196494527319
-1.0150229598618346
-0.9489410642644627
-0.7309152457292948
-0.3848722483992109
0.04192646053467003
0.48888632704005597
0.8902348177444266
1.1840915159404939
1.329620468794893
1.294434616347214
1.0983011099086277
0.7512869782039708
-0.137470861005839
-0.5546646338307302
-0.8636344562443398
-1.029348561946798
-1.0299153061909447
-0.8798252710223557
-0.6010347163498511
-0.2487554068970598
0.11160582627812449
0.44219050669951004
0.6777981626750644
0.7990337752848855
0.7918458148043153
0.6758772627788652
0.4741551934975722
0.22802680064688483
-0.020501117427228766
-0.2353000226319784
-0.3904053459657352
-0.4765265187087911
-0.49765523568138104
-0.4677490685990824
-0.4214292542856328
-0.3674636395046669
-0.36899174440880234
-0.415765116893586
-0.4639385272067291
-0.493290252876633
-0.46940694310455927
-0.3822428274229119
-0.22245593335576286
-0.006591507050192624
0.24139562317224625
0.48833794085066573
0.6886587229330952
0.8051685317403888
0.808183841656531
0.6826457489963103